
                                 *****************
                                 * O   R   C   A *
                                 *****************

                                            #,                                       
                                            ###                                      
                                            ####                                     
                                            #####                                    
                                            ######                                   
                                           ########,                                 
                                     ,,################,,,,,                         
                               ,,#################################,,                 
                          ,,##########################################,,             
                       ,#########################################, ''#####,          
                    ,#############################################,,   '####,        
                  ,##################################################,,,,####,       
                ,###########''''           ''''###############################       
              ,#####''   ,,,,##########,,,,          '''####'''          '####       
            ,##' ,,,,###########################,,,                        '##       
           ' ,,###''''                  '''############,,,                           
         ,,##''                                '''############,,,,        ,,,,,,###''
      ,#''                                            '''#######################'''  
     '                                                          ''''####''''         
             ,#######,   #######,   ,#######,      ##                                
            ,#'     '#,  ##    ##  ,#'     '#,    #''#        ######   ,####,        
            ##       ##  ##   ,#'  ##            #'  '#       #        #'  '#        
            ##       ##  #######   ##           ,######,      #####,   #    #        
            '#,     ,#'  ##    ##  '#,     ,#' ,#      #,         ##   #,  ,#        
             '#######'   ##     ##  '#######'  #'      '#     #####' # '####'        



                  #######################################################
                  #                        -***-                        #
                  #          Department of theory and spectroscopy      #
                  #    Directorship and core code : Frank Neese         #
                  #        Max Planck Institute fuer Kohlenforschung    #
                  #                Kaiser Wilhelm Platz 1               #
                  #                 D-45470 Muelheim/Ruhr               #
                  #                      Germany                        #
                  #                                                     #
                  #                  All rights reserved                #
                  #                        -***-                        #
                  #######################################################


                         Program Version 5.0.4 -  RELEASE  -


 With contributions from (in alphabetic order):
   Daniel Aravena         : Magnetic Suceptibility
   Michael Atanasov       : Ab Initio Ligand Field Theory (pilot matlab implementation)
   Alexander A. Auer      : GIAO ZORA, VPT2 properties, NMR spectrum
   Ute Becker             : Parallelization
   Giovanni Bistoni       : ED, misc. LED, open-shell LED, HFLD
   Martin Brehm           : Molecular dynamics
   Dmytro Bykov           : SCF Hessian
   Vijay G. Chilkuri      : MRCI spin determinant printing, contributions to CSF-ICE
   Dipayan Datta          : RHF DLPNO-CCSD density
   Achintya Kumar Dutta   : EOM-CC, STEOM-CC
   Dmitry Ganyushin       : Spin-Orbit,Spin-Spin,Magnetic field MRCI
   Miquel Garcia          : C-PCM and meta-GGA Hessian, CC/C-PCM, Gaussian charge scheme
   Yang Guo               : DLPNO-NEVPT2, F12-NEVPT2, CIM, IAO-localization
   Andreas Hansen         : Spin unrestricted coupled pair/coupled cluster methods
   Benjamin Helmich-Paris : MC-RPA, TRAH-SCF, COSX integrals
   Lee Huntington         : MR-EOM, pCC
   Robert Izsak           : Overlap fitted RIJCOSX, COSX-SCS-MP3, EOM
   Marcus Kettner         : VPT2
   Christian Kollmar      : KDIIS, OOCD, Brueckner-CCSD(T), CCSD density, CASPT2, CASPT2-K
   Simone Kossmann        : Meta GGA functionals, TD-DFT gradient, OOMP2, MP2 Hessian
   Martin Krupicka        : Initial AUTO-CI
   Lucas Lang             : DCDCAS
   Marvin Lechner         : AUTO-CI (C++ implementation), FIC-MRCC
   Dagmar Lenk            : GEPOL surface, SMD
   Dimitrios Liakos       : Extrapolation schemes; Compound Job, initial MDCI parallelization
   Dimitrios Manganas     : Further ROCIS development; embedding schemes
   Dimitrios Pantazis     : SARC Basis sets
   Anastasios Papadopoulos: AUTO-CI, single reference methods and gradients
   Taras Petrenko         : DFT Hessian,TD-DFT gradient, ASA, ECA, R-Raman, ABS, FL, XAS/XES, NRVS
   Peter Pinski           : DLPNO-MP2, DLPNO-MP2 Gradient
   Christoph Reimann      : Effective Core Potentials
   Marius Retegan         : Local ZFS, SOC
   Christoph Riplinger    : Optimizer, TS searches, QM/MM, DLPNO-CCSD(T), (RO)-DLPNO pert. Triples
   Tobias Risthaus        : Range-separated hybrids, TD-DFT gradient, RPA, STAB
   Michael Roemelt        : Original ROCIS implementation
   Masaaki Saitow         : Open-shell DLPNO-CCSD energy and density
   Barbara Sandhoefer     : DKH picture change effects
   Avijit Sen             : IP-ROCIS
   Kantharuban Sivalingam : CASSCF convergence, NEVPT2, FIC-MRCI
   Bernardo de Souza      : ESD, SOC TD-DFT
   Georgi Stoychev        : AutoAux, RI-MP2 NMR, DLPNO-MP2 response
   Willem Van den Heuvel  : Paramagnetic NMR
   Boris Wezisla          : Elementary symmetry handling
   Frank Wennmohs         : Technical directorship


 We gratefully acknowledge several colleagues who have allowed us to
 interface, adapt or use parts of their codes:
   Stefan Grimme, W. Hujo, H. Kruse, P. Pracht,  : VdW corrections, initial TS optimization,
                  C. Bannwarth, S. Ehlert          DFT functionals, gCP, sTDA/sTD-DF
   Ed Valeev, F. Pavosevic, A. Kumar             : LibInt (2-el integral package), F12 methods
   Garnet Chan, S. Sharma, J. Yang, R. Olivares  : DMRG
   Ulf Ekstrom                                   : XCFun DFT Library
   Mihaly Kallay                                 : mrcc  (arbitrary order and MRCC methods)
   Jiri Pittner, Ondrej Demel                    : Mk-CCSD
   Frank Weinhold                                : gennbo (NPA and NBO analysis)
   Christopher J. Cramer and Donald G. Truhlar   : smd solvation model
   Lars Goerigk                                  : TD-DFT with DH, B97 family of functionals
   V. Asgeirsson, H. Jonsson                     : NEB implementation
   FAccTs GmbH                                   : IRC, NEB, NEB-TS, DLPNO-Multilevel, CI-OPT
                                                   MM, QMMM, 2- and 3-layer-ONIOM, Crystal-QMMM,
                                                   LR-CPCM, SF, NACMEs, symmetry and pop. for TD-DFT,
                                                   nearIR, NL-DFT gradient (VV10), updates on ESD,
                                                   ML-optimized integration grids
   S Lehtola, MJT Oliveira, MAL Marques          : LibXC Library
   Liviu Ungur et al                             : ANISO software


 Your calculation uses the libint2 library for the computation of 2-el integrals
 For citations please refer to: http://libint.valeyev.net

 Your ORCA version has been built with support for libXC version: 5.1.0
 For citations please refer to: https://tddft.org/programs/libxc/

 This ORCA versions uses:
   CBLAS   interface :  Fast vector & matrix operations
   LAPACKE interface :  Fast linear algebra routines
   SCALAPACK package :  Parallel linear algebra routines
   Shared memory     :  Shared parallel matrices
   BLAS/LAPACK       :  OpenBLAS 0.3.15  USE64BITINT DYNAMIC_ARCH NO_AFFINITY SkylakeX SINGLE_THREADED
        Core in use  :  SkylakeX
   Copyright (c) 2011-2014, The OpenBLAS Project




***************************************
The coordinates will be read from file: CH2Cl2.xyz
***************************************


================================================================================

----- Orbital basis set information -----
Your calculation utilizes the basis: def2-SVP
   F. Weigend and R. Ahlrichs, Phys. Chem. Chem. Phys. 7, 3297 (2005).

----- AuxJ basis set information -----
Your calculation utilizes the auxiliary basis: def2/J
   F. Weigend, Phys. Chem. Chem. Phys. 8, 1057 (2006).

================================================================================
                                        WARNINGS
                       Please study these warnings very carefully!
================================================================================


WARNING: Geometry Optimization
  ===> : Switching off AutoStart
         For restart on a previous wavefunction, please use MOREAD

INFO   : the flag for use of the SHARK integral package has been found!

================================================================================
                                       INPUT FILE
================================================================================
NAME = CH2Cl2-raman.inp
|  1> ! B3LYP OPT def2-SVP NUMFREQ
|  2> %ELPROP
|  3>    POLAR 1
|  4> END 
|  5> 
|  6> * xyzfile 0 1 CH2Cl2.xyz
|  7> 
|  8> 
|  9>                          ****END OF INPUT****
================================================================================

                       *****************************
                       * Geometry Optimization Run *
                       *****************************

Geometry optimization settings:
Update method            Update   .... BFGS
Choice of coordinates    CoordSys .... Z-matrix Internals
Initial Hessian          InHess   .... Almoef's Model

Convergence Tolerances:
Energy Change            TolE     ....  5.0000e-06 Eh
Max. Gradient            TolMAXG  ....  3.0000e-04 Eh/bohr
RMS Gradient             TolRMSG  ....  1.0000e-04 Eh/bohr
Max. Displacement        TolMAXD  ....  4.0000e-03 bohr
RMS Displacement         TolRMSD  ....  2.0000e-03 bohr
Strict Convergence                ....  False
------------------------------------------------------------------------------
                        ORCA OPTIMIZATION COORDINATE SETUP
------------------------------------------------------------------------------

The optimization will be done in new redundant internal coordinates
Making redundant internal coordinates   ...  (new redundants) done
Evaluating the initial hessian          ...  (Almloef) done
Evaluating the coordinates              ...  done
Calculating the B-matrix                .... done
Calculating the G-matrix                .... done
Diagonalizing the G-matrix              .... done
The first mode is                       ....    1
The number of degrees of freedom        ....    9

    -----------------------------------------------------------------
                    Redundant Internal Coordinates


    -----------------------------------------------------------------
         Definition                    Initial Value    Approx d2E/dq
    -----------------------------------------------------------------
      1. B(Cl  1,C   0)                  1.7860         0.327288   
      2. B(H   2,C   0)                  1.0957         0.352692   
      3. B(Cl  3,C   0)                  1.7859         0.327400   
      4. B(H   4,C   0)                  1.0957         0.352669   
      5. A(Cl  1,C   0,Cl  3)          113.5832         0.378101   
      6. A(H   2,C   0,Cl  3)          108.0730         0.329437   
      7. A(Cl  1,C   0,H   4)          108.0606         0.329415   
      8. A(H   2,C   0,H   4)          111.0076         0.288946   
      9. A(Cl  3,C   0,H   4)          108.0716         0.329433   
     10. A(Cl  1,C   0,H   2)          108.0758         0.329418   
    -----------------------------------------------------------------

Number of atoms                         .... 5
Number of degrees of freedom            .... 10

         *************************************************************
         *                GEOMETRY OPTIMIZATION CYCLE   1            *
         *************************************************************
---------------------------------
CARTESIAN COORDINATES (ANGSTROEM)
---------------------------------
  C     -5.365979    2.877142   -0.125163
  Cl    -6.843068    3.872258    0.008159
  H     -4.618300    3.451579   -0.683256
  Cl    -4.658554    2.433323    1.453464
  H     -5.625600    1.952864   -0.653188

----------------------------
CARTESIAN COORDINATES (A.U.)
----------------------------
  NO LB      ZA    FRAG     MASS         X           Y           Z
   0 C     6.0000    0    12.011  -10.140230    5.437011   -0.236523
   1 Cl   17.0000    0    35.453  -12.931524    7.317508    0.015418
   2 H     1.0000    0     1.008   -8.727323    6.522539   -1.291167
   3 Cl   17.0000    0    35.453   -8.803390    4.598313    2.746649
   4 H     1.0000    0     1.008  -10.630843    3.690378   -1.234347

--------------------------------
INTERNAL COORDINATES (ANGSTROEM)
--------------------------------
 C      0   0   0     0.000000000000     0.00000000     0.00000000
 Cl     1   0   0     1.786007609169     0.00000000     0.00000000
 H      1   2   0     1.095658552110   108.07578665     0.00000000
 Cl     1   2   3     1.785914263129   113.58316358   119.90427906
 H      1   2   3     1.095675701802   108.06057379   239.79626394

---------------------------
INTERNAL COORDINATES (A.U.)
---------------------------
 C      0   0   0     0.000000000000     0.00000000     0.00000000
 Cl     1   0   0     3.375065254429     0.00000000     0.00000000
 H      1   2   0     2.070494599776   108.07578665     0.00000000
 Cl     1   2   3     3.374888855977   113.58316358   119.90427906
 H      1   2   3     2.070527007997   108.06057379   239.79626394

---------------------
BASIS SET INFORMATION
---------------------
There are 3 groups of distinct atoms

 Group   1 Type C   : 7s4p1d contracted to 3s2p1d pattern {511/31/1}
 Group   2 Type Cl  : 10s7p1d contracted to 4s3p1d pattern {5311/511/1}
 Group   3 Type H   : 4s1p contracted to 2s1p pattern {31/1}

Atom   0C    basis set group =>   1
Atom   1Cl   basis set group =>   2
Atom   2H    basis set group =>   3
Atom   3Cl   basis set group =>   2
Atom   4H    basis set group =>   3
---------------------------------
AUXILIARY/J BASIS SET INFORMATION
---------------------------------
There are 3 groups of distinct atoms

 Group   1 Type C   : 12s5p4d2f1g contracted to 6s4p3d1f1g pattern {711111/2111/211/2/1}
 Group   2 Type Cl  : 14s5p5d2f1g contracted to 8s4p3d1f1g pattern {71111111/2111/311/2/1}
 Group   3 Type H   : 5s2p1d contracted to 3s1p1d pattern {311/2/1}

Atom   0C    basis set group =>   1
Atom   1Cl   basis set group =>   2
Atom   2H    basis set group =>   3
Atom   3Cl   basis set group =>   2
Atom   4H    basis set group =>   3
------------------------------------------------------------------------------
                           ORCA GTO INTEGRAL CALCULATION
                           -- RI-GTO INTEGRALS CHOSEN --
------------------------------------------------------------------------------
------------------------------------------------------------------------------
                   ___                                                        
                  /   \      - P O W E R E D   B Y -                         
                 /     \                                                     
                 |  |  |   _    _      __       _____    __    __             
                 |  |  |  | |  | |    /  \     |  _  \  |  |  /  |          
                  \  \/   | |  | |   /    \    | | | |  |  | /  /          
                 / \  \   | |__| |  /  /\  \   | |_| |  |  |/  /          
                |  |  |   |  __  | /  /__\  \  |    /   |      \           
                |  |  |   | |  | | |   __   |  |    \   |  |\   \          
                \     /   | |  | | |  |  |  |  | |\  \  |  | \   \       
                 \___/    |_|  |_| |__|  |__|  |_| \__\ |__|  \__/        
                                                                              
                      - O R C A' S   B I G   F R I E N D -                    
                                      &                                       
                       - I N T E G R A L  F E E D E R -                       
                                                                              
 v1 FN, 2020, v2 2021                                                         
------------------------------------------------------------------------------


Reading SHARK input file CH2Cl2-raman.SHARKINP.tmp ... ok
----------------------
SHARK INTEGRAL PACKAGE
----------------------

Number of atoms                             ...      5
Number of basis functions                   ...     60
Number of shells                            ...     28
Maximum angular momentum                    ...      2
Integral batch strategy                     ... SHARK/LIBINT Hybrid
RI-J (if used) integral strategy            ... SPLIT-RIJ (Revised 2003 algorithm where possible)
Printlevel                                  ...      1
Contraction scheme used                     ... SEGMENTED contraction
Coulomb Range Separation                    ... NOT USED
Exchange Range Separation                   ... NOT USED
Finite Nucleus Model                        ... NOT USED
Auxiliary Coulomb fitting basis             ... AVAILABLE
   # of basis functions in Aux-J            ...    173
   # of shells in Aux-J                     ...     59
   Maximum angular momentum in Aux-J        ...      4
Auxiliary J/K fitting basis                 ... NOT available
Auxiliary Correlation fitting basis         ... NOT available
Auxiliary 'external' fitting basis          ... NOT available
Integral threshold                          ...     2.500000e-11
Primitive cut-off                           ...     2.500000e-12
Primitive pair pre-selection threshold      ...     2.500000e-12

Calculating pre-screening integrals         ... done (  0.0 sec) Dimension = 28
Organizing shell pair data                  ... done (  0.0 sec)
Shell pair information
Total number of shell pairs                 ...       406
Shell pairs after pre-screening             ...       395
Total number of primitive shell pairs       ...      1776
Primitive shell pairs kept                  ...      1372
          la=0 lb=0:    114 shell pairs
          la=1 lb=0:    146 shell pairs
          la=1 lb=1:     54 shell pairs
          la=2 lb=0:     45 shell pairs
          la=2 lb=1:     30 shell pairs
          la=2 lb=2:      6 shell pairs

Calculating one electron integrals          ... done (  0.0 sec)
Calculating RI/J V-Matrix + Cholesky decomp.... done (  0.0 sec)
Calculating Nuclear repulsion               ... done (  0.0 sec) ENN=    132.906408689898 Eh

SHARK setup successfully completed in   0.1 seconds

Maximum memory used throughout the entire GTOINT-calculation: 9.1 MB
-------------------------------------------------------------------------------
                                 ORCA SCF
-------------------------------------------------------------------------------

------------
SCF SETTINGS
------------
Hamiltonian:
 Density Functional     Method          .... DFT(GTOs)
 Exchange Functional    Exchange        .... B88
   X-Alpha parameter    XAlpha          ....  0.666667
   Becke's b parameter  XBeta           ....  0.004200
 Correlation Functional Correlation     .... LYP
 LDA part of GGA corr.  LDAOpt          .... VWN-5
 Gradients option       PostSCFGGA      .... off
 Hybrid DFT is turned on
   Fraction HF Exchange ScalHFX         ....  0.200000
   Scaling of DF-GGA-X  ScalDFX         ....  0.720000
   Scaling of DF-GGA-C  ScalDFC         ....  0.810000
   Scaling of DF-LDA-C  ScalLDAC        ....  1.000000
   Perturbative correction              ....  0.000000
   Density functional embedding theory  .... OFF
   NL short-range parameter             ....  4.800000
 RI-approximation to the Coulomb term is turned on
   Number of AuxJ basis functions       .... 173
   RIJ-COSX (HFX calculated with COS-X)).... on


General Settings:
 Integral files         IntName         .... CH2Cl2-raman
 Hartree-Fock type      HFTyp           .... RHF
 Total Charge           Charge          ....    0
 Multiplicity           Mult            ....    1
 Number of Electrons    NEL             ....   42
 Basis Dimension        Dim             ....   60
 Nuclear Repulsion      ENuc            ....    132.9064086899 Eh

Convergence Acceleration:
 DIIS                   CNVDIIS         .... on
   Start iteration      DIISMaxIt       ....    12
   Startup error        DIISStart       ....  0.200000
   # of expansion vecs  DIISMaxEq       ....     5
   Bias factor          DIISBfac        ....   1.050
   Max. coefficient     DIISMaxC        ....  10.000
 Trust-Rad. Augm. Hess. CNVTRAH         .... auto
   Auto Start mean grad. ratio tolernc. ....  1.125000
   Auto Start start iteration           ....    20
   Auto Start num. interpolation iter.  ....    10
   Max. Number of Micro iterations      ....    16
   Max. Number of Macro iterations      .... Maxiter - #DIIS iter
   Number of Davidson start vectors     ....     2
   Converg. threshold I  (grad. norm)   ....   1.000e-05
   Converg. threshold II (energy diff.) ....   1.000e-08
   Grad. Scal. Fac. for Micro threshold ....   0.100
   Minimum threshold for Micro iter.    ....   0.010
   NR start threshold (gradient norm)   ....   0.001
   Initial trust radius                 ....   0.400
   Minimum AH scaling param. (alpha)    ....   1.000
   Maximum AH scaling param. (alpha)    .... 1000.000
   Orbital update algorithm             .... Taylor
   White noise on init. David. guess    .... on
   Maximum white noise                  ....   0.010
   Quad. conv. algorithm                .... NR
 SOSCF                  CNVSOSCF        .... on
   Start iteration      SOSCFMaxIt      ....   150
   Startup grad/error   SOSCFStart      ....  0.003300
 Level Shifting         CNVShift        .... on
   Level shift para.    LevelShift      ....    0.2500
   Turn off err/grad.   ShiftErr        ....    0.0010
 Zerner damping         CNVZerner       .... off
 Static damping         CNVDamp         .... on
   Fraction old density DampFac         ....    0.7000
   Max. Damping (<1)    DampMax         ....    0.9800
   Min. Damping (>=0)   DampMin         ....    0.0000
   Turn off err/grad.   DampErr         ....    0.1000
 Fernandez-Rico         CNVRico         .... off

SCF Procedure:
 Maximum # iterations   MaxIter         ....   125
 SCF integral mode      SCFMode         .... Direct
   Integral package                     .... SHARK and LIBINT hybrid scheme
 Reset frequency        DirectResetFreq ....    20
 Integral Threshold     Thresh          ....  2.500e-11 Eh
 Primitive CutOff       TCut            ....  2.500e-12 Eh

Convergence Tolerance:
 Convergence Check Mode ConvCheckMode   .... Total+1el-Energy
 Convergence forced     ConvForced      .... 0
 Energy Change          TolE            ....  1.000e-08 Eh
 1-El. energy change                    ....  1.000e-05 Eh
 Orbital Gradient       TolG            ....  1.000e-05
 Orbital Rotation angle TolX            ....  1.000e-05
 DIIS Error             TolErr          ....  5.000e-07


Diagonalization of the overlap matrix:
Smallest eigenvalue                        ... 8.988e-03
Time for diagonalization                   ...    0.001 sec
Threshold for overlap eigenvalues          ... 1.000e-08
Number of eigenvalues below threshold      ... 0
Time for construction of square roots      ...    0.000 sec
Total time needed                          ...    0.002 sec

Time for model grid setup =    0.024 sec

------------------------------
INITIAL GUESS: MODEL POTENTIAL
------------------------------
Loading Hartree-Fock densities                     ... done
Calculating cut-offs                               ... done
Initializing the effective Hamiltonian             ... done
Setting up the integral package (SHARK)            ... done
Starting the Coulomb interaction                   ... done (   0.0 sec)
Reading the grid                                   ... done
Mapping shells                                     ... done
Starting the XC term evaluation                    ... done (   0.0 sec)
  promolecular density results
     # of electrons  =     41.999525815
     EX              =    -60.769151022
     EC              =     -1.669116677
     EX+EC           =    -62.438267699
Transforming the Hamiltonian                       ... done (   0.0 sec)
Diagonalizing the Hamiltonian                      ... done (   0.0 sec)
Back transforming the eigenvectors                 ... done (   0.0 sec)
Now organizing SCF variables                       ... done
                      ------------------
                      INITIAL GUESS DONE (   0.1 sec)
                      ------------------
-------------------
DFT GRID GENERATION
-------------------

General Integration Accuracy     IntAcc      ... 4.388
Radial Grid Type                 RadialGrid  ... OptM3 with GC (2021)
Angular Grid (max. ang.)         AngularGrid ... 4 (Lebedev-302)
Angular grid pruning method      GridPruning ... 4 (adaptive)
Weight generation scheme         WeightScheme... Becke
Basis function cutoff            BFCut       ... 1.0000e-11
Integration weight cutoff        WCut        ... 1.0000e-14
Angular grids for H and He will be reduced by one unit
Partially contracted basis set               ... off
Rotationally invariant grid construction     ... off

Total number of grid points                  ...    27376
Total number of batches                      ...      430
Average number of points per batch           ...       63
Average number of grid points per atom       ...     5475
Time for grid setup =    0.126 sec

--------------------
COSX GRID GENERATION
--------------------

GRIDX 1
-------
General Integration Accuracy     IntAcc      ... 3.816
Radial Grid Type                 RadialGrid  ... OptM3 with GC (2021)
Angular Grid (max. ang.)         AngularGrid ... 1 (Lebedev-50)
Angular grid pruning method      GridPruning ... 4 (adaptive)
Weight generation scheme         WeightScheme... Becke
Basis function cutoff            BFCut       ... 1.0000e-11
Integration weight cutoff        WCut        ... 1.0000e-14
Angular grids for H and He will be reduced by one unit
Partially contracted basis set               ... on
Rotationally invariant grid construction     ... off

Total number of grid points                  ...     3328
Total number of batches                      ...       54
Average number of points per batch           ...       61
Average number of grid points per atom       ...      666
UseSFitting                                  ... on

GRIDX 2
-------
General Integration Accuracy     IntAcc      ... 4.020
Radial Grid Type                 RadialGrid  ... OptM3 with GC (2021)
Angular Grid (max. ang.)         AngularGrid ... 2 (Lebedev-110)
Angular grid pruning method      GridPruning ... 4 (adaptive)
Weight generation scheme         WeightScheme... Becke
Basis function cutoff            BFCut       ... 1.0000e-11
Integration weight cutoff        WCut        ... 1.0000e-14
Angular grids for H and He will be reduced by one unit
Partially contracted basis set               ... on
Rotationally invariant grid construction     ... off

Total number of grid points                  ...     7418
Total number of batches                      ...      117
Average number of points per batch           ...       63
Average number of grid points per atom       ...     1484
UseSFitting                                  ... on

GRIDX 3
-------
General Integration Accuracy     IntAcc      ... 4.338
Radial Grid Type                 RadialGrid  ... OptM3 with GC (2021)
Angular Grid (max. ang.)         AngularGrid ... 3 (Lebedev-194)
Angular grid pruning method      GridPruning ... 4 (adaptive)
Weight generation scheme         WeightScheme... Becke
Basis function cutoff            BFCut       ... 1.0000e-11
Integration weight cutoff        WCut        ... 1.0000e-14
Angular grids for H and He will be reduced by one unit
Partially contracted basis set               ... on
Rotationally invariant grid construction     ... off

Total number of grid points                  ...    17648
Total number of batches                      ...      279
Average number of points per batch           ...       63
Average number of grid points per atom       ...     3530
UseSFitting                                  ... on

Time for X-Grid setup             =    0.120 sec

--------------
SCF ITERATIONS
--------------
ITER       Energy         Delta-E        Max-DP      RMS-DP      [F,P]     Damp
               ***  Starting incremental Fock matrix formation  ***
  0   -959.2338758748   0.000000000000 0.03045207  0.00149824  0.0429203 0.7000
  1   -959.2384825300  -0.004606655238 0.02257804  0.00111809  0.0264662 0.7000
                               ***Turning on DIIS***
  2   -959.2411058151  -0.002623285077 0.04463665  0.00223376  0.0156482 0.0000
  3   -959.2457608086  -0.004654993452 0.01394949  0.00075502  0.0101019 0.0000
                      *** Initiating the SOSCF procedure ***
                           *** Shutting down DIIS ***
                      *** Re-Reading the Fockian *** 
                      *** Removing any level shift *** 
ITER      Energy       Delta-E        Grad      Rot      Max-DP    RMS-DP
  4   -959.24616051  -0.0003996986  0.000877  0.000877  0.003220  0.000138
               *** Restarting incremental Fock matrix formation ***
  5   -959.24617638  -0.0000158684  0.000472  0.000969  0.001323  0.000081
  6   -959.24617381   0.0000025669  0.000827  0.000645  0.001029  0.000050
  7   -959.24617830  -0.0000044946  0.000021  0.000025  0.000094  0.000006
  8   -959.24617831  -0.0000000059  0.000015  0.000009  0.000042  0.000002
                  ***Gradient check signals convergence***
              ***Rediagonalizing the Fockian in SOSCF/NRSCF***

               *****************************************************
               *                     SUCCESS                       *
               *           SCF CONVERGED AFTER   9 CYCLES          *
               *****************************************************

Old exchange energy                            =    -12.192516715 Eh
New exchange energy                            =    -12.192519764 Eh
Exchange energy change after final integration =     -0.000003049 Eh
Total energy after final integration           =   -959.246181360 Eh
Final COS-X integration done in                =     0.503 sec

----------------
TOTAL SCF ENERGY
----------------

Total Energy       :         -959.24618136 Eh          -26102.41562 eV

Components:
Nuclear Repulsion  :          132.90640869 Eh            3616.56724 eV
Electronic Energy  :        -1092.15259005 Eh          -29718.98286 eV
One Electron Energy:        -1587.53048559 Eh          -43198.90070 eV
Two Electron Energy:          495.37789554 Eh           13479.91784 eV
Max COSX asymmetry :            0.00000183 Eh               0.00005 eV

Virial components:
Potential Energy   :        -1916.32546016 Eh          -52145.86682 eV
Kinetic Energy     :          957.07927880 Eh           26043.45120 eV
Virial Ratio       :            2.00226408


DFT components:
N(Alpha)           :       20.999997590576 electrons
N(Beta)            :       20.999997590576 electrons
N(Total)           :       41.999995181152 electrons
E(X)               :      -48.377625429535 Eh       
E(C)               :       -1.957574678335 Eh       
E(XC)              :      -50.335200107870 Eh       
DFET-embed. en.    :        0.000000000000 Eh       

---------------
SCF CONVERGENCE
---------------

  Last Energy change         ...   -2.0858e-09  Tolerance :   1.0000e-08
  Last MAX-Density change    ...    4.4409e-15  Tolerance :   1.0000e-07
  Last RMS-Density change    ...    1.2072e-16  Tolerance :   5.0000e-09
  Last Orbital Gradient      ...    6.1109e-07  Tolerance :   1.0000e-05
  Last Orbital Rotation      ...    6.2387e-07  Tolerance :   1.0000e-05

             **** THE GBW FILE WAS UPDATED (CH2Cl2-raman.gbw) ****
             **** DENSITY CH2Cl2-raman.scfp WAS UPDATED ****
             **** ENERGY FILE WAS UPDATED (CH2Cl2-raman.en.tmp) ****
             **** THE GBW FILE WAS UPDATED (CH2Cl2-raman.gbw) ****
             **** DENSITY CH2Cl2-raman.scfp WAS UPDATED ****
----------------
ORBITAL ENERGIES
----------------

  NO   OCC          E(Eh)            E(eV) 
   0   2.0000    -101.501925     -2762.0078 
   1   2.0000    -101.501892     -2762.0069 
   2   2.0000     -10.297695      -280.2145 
   3   2.0000      -9.456806      -257.3328 
   4   2.0000      -9.456774      -257.3319 
   5   2.0000      -7.226258      -196.6365 
   6   2.0000      -7.226235      -196.6358 
   7   2.0000      -7.215871      -196.3538 
   8   2.0000      -7.215850      -196.3533 
   9   2.0000      -7.215353      -196.3397 
  10   2.0000      -7.215337      -196.3393 
  11   2.0000      -0.890880       -24.2421 
  12   2.0000      -0.816794       -22.2261 
  13   2.0000      -0.653011       -17.7693 
  14   2.0000      -0.489067       -13.3082 
  15   2.0000      -0.454148       -12.3580 
  16   2.0000      -0.438475       -11.9315 
  17   2.0000      -0.319787        -8.7019 
  18   2.0000      -0.316921        -8.6239 
  19   2.0000      -0.301344        -8.2000 
  20   2.0000      -0.295485        -8.0406 
  21   0.0000       0.009718         0.2644 
  22   0.0000       0.048397         1.3169 
  23   0.0000       0.070798         1.9265 
  24   0.0000       0.097560         2.6547 
  25   0.0000       0.392241        10.6734 
  26   0.0000       0.399719        10.8769 
  27   0.0000       0.417956        11.3732 
  28   0.0000       0.460665        12.5353 
  29   0.0000       0.558850        15.2071 
  30   0.0000       0.608331        16.5535 
  31   0.0000       0.613426        16.6922 
  32   0.0000       0.703019        19.1301 
  33   0.0000       0.737552        20.0698 
  34   0.0000       0.764311        20.7980 
  35   0.0000       0.767236        20.8776 
  36   0.0000       0.777963        21.1694 
  37   0.0000       0.780352        21.2345 
  38   0.0000       0.781090        21.2545 
  39   0.0000       0.789851        21.4929 
  40   0.0000       0.793579        21.5944 
  41   0.0000       0.806367        21.9424 
  42   0.0000       0.834307        22.7026 
  43   0.0000       0.855073        23.2677 
  44   0.0000       0.876788        23.8586 
  45   0.0000       1.018095        27.7038 
  46   0.0000       1.091878        29.7115 
  47   0.0000       1.253198        34.1012 
  48   0.0000       1.263524        34.3822 
  49   0.0000       1.329864        36.1874 
  50   0.0000       1.502911        40.8963 
  51   0.0000       1.638247        44.5790 
  52   0.0000       1.845703        50.2241 
  53   0.0000       1.864548        50.7369 
  54   0.0000       1.951048        53.0907 
  55   0.0000       2.165379        58.9230 
  56   0.0000       2.167582        58.9829 
  57   0.0000       2.318326        63.0849 
  58   0.0000       2.717948        73.9591 
  59   0.0000       2.840032        77.2812 

                    ********************************
                    * MULLIKEN POPULATION ANALYSIS *
                    ********************************

-----------------------
MULLIKEN ATOMIC CHARGES
-----------------------
   0 C :    0.062964
   1 Cl:   -0.128457
   2 H :    0.096991
   3 Cl:   -0.128429
   4 H :    0.096932
Sum of atomic charges:   -0.0000000

--------------------------------
MULLIKEN REDUCED ORBITAL CHARGES
--------------------------------
  0 C s       :     3.096971  s :     3.096971
      pz      :     0.881227  p :     2.790025
      px      :     0.893234
      py      :     1.015565
      dz2     :     0.009564  d :     0.050041
      dxz     :     0.011200
      dyz     :     0.010041
      dx2y2   :     0.007666
      dxy     :     0.011569
  1 Cls       :     5.958040  s :     5.958040
      pz      :     3.935279  p :    11.137941
      px      :     3.461084
      py      :     3.741579
      dz2     :     0.005231  d :     0.032475
      dxz     :     0.003882
      dyz     :     0.001854
      dx2y2   :     0.007359
      dxy     :     0.014149
  2 H s       :     0.881127  s :     0.881127
      pz      :     0.006203  p :     0.021882
      px      :     0.008626
      py      :     0.007053
  3 Cls       :     5.958061  s :     5.958061
      pz      :     3.393429  p :    11.137885
      px      :     3.829217
      py      :     3.915238
      dz2     :     0.011794  d :     0.032484
      dxz     :     0.010446
      dyz     :     0.007215
      dx2y2   :     0.001200
      dxy     :     0.001828
  4 H s       :     0.881190  s :     0.881190
      pz      :     0.005904  p :     0.021878
      px      :     0.004136
      py      :     0.011838


                     *******************************
                     * LOEWDIN POPULATION ANALYSIS *
                     *******************************

----------------------
LOEWDIN ATOMIC CHARGES
----------------------
   0 C :   -0.145242
   1 Cl:    0.048109
   2 H :    0.024477
   3 Cl:    0.048186
   4 H :    0.024470

-------------------------------
LOEWDIN REDUCED ORBITAL CHARGES
-------------------------------
  0 C s       :     2.975272  s :     2.975272
      pz      :     0.981521  p :     3.061008
      px      :     0.997326
      py      :     1.082161
      dz2     :     0.019373  d :     0.108963
      dxz     :     0.024619
      dyz     :     0.023189
      dx2y2   :     0.016341
      dxy     :     0.025441
  1 Cls       :     5.794423  s :     5.794423
      pz      :     3.920782  p :    11.121136
      px      :     3.466846
      py      :     3.733507
      dz2     :     0.006149  d :     0.036332
      dxz     :     0.003920
      dyz     :     0.001876
      dx2y2   :     0.007675
      dxy     :     0.016712
  2 H s       :     0.903939  s :     0.903939
      pz      :     0.021604  p :     0.071585
      px      :     0.028760
      py      :     0.021221
  3 Cls       :     5.794382  s :     5.794382
      pz      :     3.399871  p :    11.121088
      px      :     3.820761
      py      :     3.900457
      dz2     :     0.013285  d :     0.036343
      dxz     :     0.012022
      dyz     :     0.007791
      dx2y2   :     0.001218
      dxy     :     0.002027
  4 H s       :     0.903950  s :     0.903950
      pz      :     0.020550  p :     0.071580
      px      :     0.012925
      py      :     0.038105


                      *****************************
                      * MAYER POPULATION ANALYSIS *
                      *****************************

  NA   - Mulliken gross atomic population
  ZA   - Total nuclear charge
  QA   - Mulliken gross atomic charge
  VA   - Mayer's total valence
  BVA  - Mayer's bonded valence
  FA   - Mayer's free valence

  ATOM       NA         ZA         QA         VA         BVA        FA
  0 C      5.9370     6.0000     0.0630     3.9750     3.9750     0.0000
  1 Cl    17.1285    17.0000    -0.1285     1.0966     1.0966    -0.0000
  2 H      0.9030     1.0000     0.0970     0.9748     0.9748    -0.0000
  3 Cl    17.1284    17.0000    -0.1284     1.0967     1.0967    -0.0000
  4 H      0.9031     1.0000     0.0969     0.9748     0.9748    -0.0000

  Mayer bond orders larger than 0.100000
B(  0-C ,  1-Cl) :   1.0278 B(  0-C ,  2-H ) :   0.9596 B(  0-C ,  3-Cl) :   1.0279 
B(  0-C ,  4-H ) :   0.9597 

-------
TIMINGS
-------

Total SCF time: 0 days 0 hours 0 min 3 sec 

Total time                  ....       3.788 sec
Sum of individual times     ....       3.715 sec  ( 98.1%)

Fock matrix formation       ....       3.410 sec  ( 90.0%)
  Split-RI-J                ....       0.253 sec  (  7.4% of F)
  Chain of spheres X        ....       2.214 sec  ( 64.9% of F)
  XC integration            ....       0.950 sec  ( 27.9% of F)
    Basis function eval.    ....       0.383 sec  ( 40.4% of XC)
    Density eval.           ....       0.139 sec  ( 14.6% of XC)
    XC-Functional eval.     ....       0.211 sec  ( 22.2% of XC)
    XC-Potential eval.      ....       0.166 sec  ( 17.5% of XC)
Diagonalization             ....       0.002 sec  (  0.1%)
Density matrix formation    ....       0.000 sec  (  0.0%)
Population analysis         ....       0.001 sec  (  0.0%)
Initial guess               ....       0.031 sec  (  0.8%)
Orbital Transformation      ....       0.000 sec  (  0.0%)
Orbital Orthonormalization  ....       0.000 sec  (  0.0%)
DIIS solution               ....       0.000 sec  (  0.0%)
SOSCF solution              ....       0.001 sec  (  0.0%)
Grid generation             ....       0.269 sec  (  7.1%)

Maximum memory used throughout the entire SCF-calculation: 47.8 MB

-------------------------   --------------------
FINAL SINGLE POINT ENERGY      -959.246181360242
-------------------------   --------------------

------------------------------------------------------------------------------
                         ORCA SCF GRADIENT CALCULATION
------------------------------------------------------------------------------

 ... reading COSX grid (gridx3)
Gradient of the Kohn-Sham DFT energy:
Kohn-Sham wavefunction type      ... RKS
Hartree-Fock exchange scaling    ...    0.200
Number of operators              ...    1
Number of atoms                  ...    5
Basis set dimensions             ...   60
Integral neglect threshold       ... 2.5e-11
Integral primitive cutoff        ... 2.5e-12
SHARK Integral package           ... ON

Nuc. rep. gradient       (SHARK) ... done (  0.0 sec)
HCore & Overlap gradient (SHARK) ... done (  0.0 sec)
RI-J gradient            (SHARK) ... done (  0.1 sec)
COSX-gradient                    ... done (  0.6 sec)
Exchange-correlation gradient    ... done

------------------
CARTESIAN GRADIENT
------------------

   1   C   :   -0.000042677    0.000013981    0.000027455
   2   Cl  :   -0.000015012    0.000004325   -0.000099887
   3   H   :   -0.000003874   -0.000008869    0.000010635
   4   Cl  :   -0.000076033    0.000019018    0.000000834
   5   H   :   -0.000014088   -0.000005633    0.000000020

Difference to translation invariance:
           :   -0.0001516837    0.0000228210   -0.0000609432

Difference to rotation invariance:
           :   -0.0005757740   -0.0010895066    0.0005409416

Norm of the cartesian gradient     ...    0.0001399015
RMS gradient                       ...    0.0000361224
MAX gradient                       ...    0.0000998868

-------
TIMINGS
-------

Total SCF gradient time            ...        1.155 sec

One electron gradient       ....       0.009 sec  (  0.8%)
RI-J Coulomb gradient       ....       0.109 sec  (  9.5%)
COSX gradient               ....       0.597 sec  ( 51.7%)
XC gradient                 ....       0.318 sec  ( 27.5%)

Maximum memory used throughout the entire SCFGRAD-calculation: 37.2 MB
------------------------------------------------------------------------------
                         ORCA GEOMETRY RELAXATION STEP
------------------------------------------------------------------------------

Reading the OPT-File                    .... done
Getting information on internals        .... done
Copying old internal coords+grads       .... done
Making the new internal coordinates     .... (new redundants).... done
Validating the new internal coordinates .... (new redundants).... done
Calculating the B-matrix                .... done
Calculating the G,G- and P matrices     .... done
Transforming gradient to internals      .... done
Projecting the internal gradient        .... done
Number of atoms                         ....   5
Number of internal coordinates          ....  10
Current Energy                          ....  -959.246181360 Eh
Current gradient norm                   ....     0.000139901 Eh/bohr
Maximum allowed component of the step   ....  0.300
Current trust radius                    ....  0.300
Evaluating the initial hessian          ....  (Almloef) done
Projecting the Hessian                  .... done
Forming the augmented Hessian           .... done
Diagonalizing the augmented Hessian     .... done
Last element of RFO vector              ....  0.999999985
Lowest eigenvalues of augmented Hessian:
 -0.000000011  0.295823550  0.327287668  0.327399920  0.329416314
Length of the computed step             ....  0.000174991
The final length of the internal step   ....  0.000174991
Converting the step to cartesian space:
 Initial RMS(Int)=    0.0000553369
Transforming coordinates:
 Iter   0:  RMS(Cart)=    0.0000738987 RMS(Int)=    0.0000553375
 Iter   1:  RMS(Cart)=    0.0000000037 RMS(Int)=    0.0000000042
done
Storing new coordinates                 .... done

                                .--------------------.
          ----------------------|Geometry convergence|-------------------------
          Item                value                   Tolerance       Converged
          ---------------------------------------------------------------------
          RMS gradient        0.0000201336            0.0001000000      YES
          MAX gradient        0.0000544521            0.0003000000      YES
          RMS step            0.0000553369            0.0020000000      YES
          MAX step            0.0001473879            0.0040000000      YES
          ........................................................
          Max(Bonds)      0.0000      Max(Angles)    0.01
          Max(Dihed)        0.00      Max(Improp)    0.00
          ---------------------------------------------------------------------

                    ***********************HURRAY********************
                    ***        THE OPTIMIZATION HAS CONVERGED     ***
                    *************************************************


    ---------------------------------------------------------------------------
                         Redundant Internal Coordinates

                          --- Optimized Parameters ---  
                            (Angstroem and degrees)

        Definition                    OldVal   dE/dq     Step     FinalVal
    ----------------------------------------------------------------------------
     1. B(Cl  1,C   0)                1.7860 -0.000015  0.0000    1.7860   
     2. B(H   2,C   0)                1.0957 -0.000001  0.0000    1.0957   
     3. B(Cl  3,C   0)                1.7859 -0.000015  0.0000    1.7859   
     4. B(H   4,C   0)                1.0957 -0.000001  0.0000    1.0957   
     5. A(Cl  1,C   0,Cl  3)          113.58  0.000054   -0.01    113.57   
     6. A(H   2,C   0,Cl  3)          108.07 -0.000013    0.00    108.08   
     7. A(Cl  1,C   0,H   4)          108.06 -0.000012    0.00    108.06   
     8. A(H   2,C   0,H   4)          111.01 -0.000004    0.00    111.01   
     9. A(Cl  3,C   0,H   4)          108.07 -0.000013    0.00    108.07   
    10. A(Cl  1,C   0,H   2)          108.08 -0.000013    0.00    108.08   
    ----------------------------------------------------------------------------
                 *******************************************************
                 *** FINAL ENERGY EVALUATION AT THE STATIONARY POINT ***
                 ***               (AFTER    1 CYCLES)               ***
                 *******************************************************
---------------------------------
CARTESIAN COORDINATES (ANGSTROEM)
---------------------------------
  C     -5.365958    2.877128   -0.125207
  Cl    -6.843058    3.872254    0.008247
  H     -4.618279    3.451569   -0.683297
  Cl    -4.658620    2.433368    1.453503
  H     -5.625584    1.952847   -0.653229

----------------------------
CARTESIAN COORDINATES (A.U.)
----------------------------
  NO LB      ZA    FRAG     MASS         X           Y           Z
   0 C     6.0000    0    12.011  -10.140192    5.436984   -0.236608
   1 Cl   17.0000    0    35.453  -12.931506    7.317499    0.015585
   2 H     1.0000    0     1.008   -8.727283    6.522520   -1.291245
   3 Cl   17.0000    0    35.453   -8.803516    4.598399    2.746722
   4 H     1.0000    0     1.008  -10.630813    3.690346   -1.234424

--------------------------------
INTERNAL COORDINATES (ANGSTROEM)
--------------------------------
 C      0   0   0     0.000000000000     0.00000000     0.00000000
 Cl     1   0   0     1.786031366284     0.00000000     0.00000000
 H      1   2   0     1.095659886604   108.07776098     0.00000000
 Cl     1   2   3     1.785938256159   113.57471884   119.90283614
 H      1   2   3     1.095676977898   108.06251892   239.79334454

---------------------------
INTERNAL COORDINATES (A.U.)
---------------------------
 C      0   0   0     0.000000000000     0.00000000     0.00000000
 Cl     1   0   0     3.375110148869     0.00000000     0.00000000
 H      1   2   0     2.070497121604   108.07776098     0.00000000
 Cl     1   2   3     3.374934196234   113.57471884   119.90283614
 H      1   2   3     2.070529419471   108.06251892   239.79334454

---------------------
BASIS SET INFORMATION
---------------------
There are 3 groups of distinct atoms

 Group   1 Type C   : 7s4p1d contracted to 3s2p1d pattern {511/31/1}
 Group   2 Type Cl  : 10s7p1d contracted to 4s3p1d pattern {5311/511/1}
 Group   3 Type H   : 4s1p contracted to 2s1p pattern {31/1}

Atom   0C    basis set group =>   1
Atom   1Cl   basis set group =>   2
Atom   2H    basis set group =>   3
Atom   3Cl   basis set group =>   2
Atom   4H    basis set group =>   3
---------------------------------
AUXILIARY/J BASIS SET INFORMATION
---------------------------------
There are 3 groups of distinct atoms

 Group   1 Type C   : 12s5p4d2f1g contracted to 6s4p3d1f1g pattern {711111/2111/211/2/1}
 Group   2 Type Cl  : 14s5p5d2f1g contracted to 8s4p3d1f1g pattern {71111111/2111/311/2/1}
 Group   3 Type H   : 5s2p1d contracted to 3s1p1d pattern {311/2/1}

Atom   0C    basis set group =>   1
Atom   1Cl   basis set group =>   2
Atom   2H    basis set group =>   3
Atom   3Cl   basis set group =>   2
Atom   4H    basis set group =>   3
------------------------------------------------------------------------------
                           ORCA GTO INTEGRAL CALCULATION
                           -- RI-GTO INTEGRALS CHOSEN --
------------------------------------------------------------------------------
------------------------------------------------------------------------------
                   ___                                                        
                  /   \      - P O W E R E D   B Y -                         
                 /     \                                                     
                 |  |  |   _    _      __       _____    __    __             
                 |  |  |  | |  | |    /  \     |  _  \  |  |  /  |          
                  \  \/   | |  | |   /    \    | | | |  |  | /  /          
                 / \  \   | |__| |  /  /\  \   | |_| |  |  |/  /          
                |  |  |   |  __  | /  /__\  \  |    /   |      \           
                |  |  |   | |  | | |   __   |  |    \   |  |\   \          
                \     /   | |  | | |  |  |  |  | |\  \  |  | \   \       
                 \___/    |_|  |_| |__|  |__|  |_| \__\ |__|  \__/        
                                                                              
                      - O R C A' S   B I G   F R I E N D -                    
                                      &                                       
                       - I N T E G R A L  F E E D E R -                       
                                                                              
 v1 FN, 2020, v2 2021                                                         
------------------------------------------------------------------------------


Reading SHARK input file CH2Cl2-raman.SHARKINP.tmp ... ok
----------------------
SHARK INTEGRAL PACKAGE
----------------------

Number of atoms                             ...      5
Number of basis functions                   ...     60
Number of shells                            ...     28
Maximum angular momentum                    ...      2
Integral batch strategy                     ... SHARK/LIBINT Hybrid
RI-J (if used) integral strategy            ... SPLIT-RIJ (Revised 2003 algorithm where possible)
Printlevel                                  ...      1
Contraction scheme used                     ... SEGMENTED contraction
Coulomb Range Separation                    ... NOT USED
Exchange Range Separation                   ... NOT USED
Finite Nucleus Model                        ... NOT USED
Auxiliary Coulomb fitting basis             ... AVAILABLE
   # of basis functions in Aux-J            ...    173
   # of shells in Aux-J                     ...     59
   Maximum angular momentum in Aux-J        ...      4
Auxiliary J/K fitting basis                 ... NOT available
Auxiliary Correlation fitting basis         ... NOT available
Auxiliary 'external' fitting basis          ... NOT available
Integral threshold                          ...     2.500000e-11
Primitive cut-off                           ...     2.500000e-12
Primitive pair pre-selection threshold      ...     2.500000e-12

Calculating pre-screening integrals         ... done (  0.0 sec) Dimension = 28
Organizing shell pair data                  ... done (  0.0 sec)
Shell pair information
Total number of shell pairs                 ...       406
Shell pairs after pre-screening             ...       395
Total number of primitive shell pairs       ...      1776
Primitive shell pairs kept                  ...      1372
          la=0 lb=0:    114 shell pairs
          la=1 lb=0:    146 shell pairs
          la=1 lb=1:     54 shell pairs
          la=2 lb=0:     45 shell pairs
          la=2 lb=1:     30 shell pairs
          la=2 lb=2:      6 shell pairs

Calculating one electron integrals          ... done (  0.0 sec)
Calculating RI/J V-Matrix + Cholesky decomp.... done (  0.0 sec)
Calculating Nuclear repulsion               ... done (  0.0 sec) ENN=    132.907060399979 Eh

SHARK setup successfully completed in   0.1 seconds

Maximum memory used throughout the entire GTOINT-calculation: 9.1 MB
-------------------------------------------------------------------------------
                                 ORCA SCF
-------------------------------------------------------------------------------

------------
SCF SETTINGS
------------
Hamiltonian:
 Density Functional     Method          .... DFT(GTOs)
 Exchange Functional    Exchange        .... B88
   X-Alpha parameter    XAlpha          ....  0.666667
   Becke's b parameter  XBeta           ....  0.004200
 Correlation Functional Correlation     .... LYP
 LDA part of GGA corr.  LDAOpt          .... VWN-5
 Gradients option       PostSCFGGA      .... off
 Hybrid DFT is turned on
   Fraction HF Exchange ScalHFX         ....  0.200000
   Scaling of DF-GGA-X  ScalDFX         ....  0.720000
   Scaling of DF-GGA-C  ScalDFC         ....  0.810000
   Scaling of DF-LDA-C  ScalLDAC        ....  1.000000
   Perturbative correction              ....  0.000000
   Density functional embedding theory  .... OFF
   NL short-range parameter             ....  4.800000
 RI-approximation to the Coulomb term is turned on
   Number of AuxJ basis functions       .... 173
   RIJ-COSX (HFX calculated with COS-X)).... on


General Settings:
 Integral files         IntName         .... CH2Cl2-raman
 Hartree-Fock type      HFTyp           .... RHF
 Total Charge           Charge          ....    0
 Multiplicity           Mult            ....    1
 Number of Electrons    NEL             ....   42
 Basis Dimension        Dim             ....   60
 Nuclear Repulsion      ENuc            ....    132.9070604000 Eh

Convergence Acceleration:
 DIIS                   CNVDIIS         .... on
   Start iteration      DIISMaxIt       ....    12
   Startup error        DIISStart       ....  0.200000
   # of expansion vecs  DIISMaxEq       ....     5
   Bias factor          DIISBfac        ....   1.050
   Max. coefficient     DIISMaxC        ....  10.000
 Trust-Rad. Augm. Hess. CNVTRAH         .... auto
   Auto Start mean grad. ratio tolernc. ....  1.125000
   Auto Start start iteration           ....     1
   Auto Start num. interpolation iter.  ....    10
   Max. Number of Micro iterations      ....    16
   Max. Number of Macro iterations      .... Maxiter - #DIIS iter
   Number of Davidson start vectors     ....     2
   Converg. threshold I  (grad. norm)   ....   1.000e-05
   Converg. threshold II (energy diff.) ....   1.000e-08
   Grad. Scal. Fac. for Micro threshold ....   0.100
   Minimum threshold for Micro iter.    ....   0.010
   NR start threshold (gradient norm)   ....   0.001
   Initial trust radius                 ....   0.400
   Minimum AH scaling param. (alpha)    ....   1.000
   Maximum AH scaling param. (alpha)    .... 1000.000
   Orbital update algorithm             .... Taylor
   White noise on init. David. guess    .... on
   Maximum white noise                  ....   0.010
   Quad. conv. algorithm                .... NR
 SOSCF                  CNVSOSCF        .... on
   Start iteration      SOSCFMaxIt      ....   150
   Startup grad/error   SOSCFStart      ....  0.003300
 Level Shifting         CNVShift        .... on
   Level shift para.    LevelShift      ....    0.2500
   Turn off err/grad.   ShiftErr        ....    0.0010
 Zerner damping         CNVZerner       .... off
 Static damping         CNVDamp         .... on
   Fraction old density DampFac         ....    0.7000
   Max. Damping (<1)    DampMax         ....    0.9800
   Min. Damping (>=0)   DampMin         ....    0.0000
   Turn off err/grad.   DampErr         ....    0.1000
 Fernandez-Rico         CNVRico         .... off

SCF Procedure:
 Maximum # iterations   MaxIter         ....   125
 SCF integral mode      SCFMode         .... Direct
   Integral package                     .... SHARK and LIBINT hybrid scheme
 Reset frequency        DirectResetFreq ....    20
 Integral Threshold     Thresh          ....  2.500e-11 Eh
 Primitive CutOff       TCut            ....  2.500e-12 Eh

Convergence Tolerance:
 Convergence Check Mode ConvCheckMode   .... Total+1el-Energy
 Convergence forced     ConvForced      .... 0
 Energy Change          TolE            ....  1.000e-08 Eh
 1-El. energy change                    ....  1.000e-05 Eh
 Orbital Gradient       TolG            ....  1.000e-05
 Orbital Rotation angle TolX            ....  1.000e-05
 DIIS Error             TolErr          ....  5.000e-07


Diagonalization of the overlap matrix:
Smallest eigenvalue                        ... 8.988e-03
Time for diagonalization                   ...    0.001 sec
Threshold for overlap eigenvalues          ... 1.000e-08
Number of eigenvalues below threshold      ... 0
Time for construction of square roots      ...    0.000 sec
Total time needed                          ...    0.001 sec

---------------------
INITIAL GUESS: MOREAD
---------------------
Guess MOs are being read from file: CH2Cl2-raman.gbw
Input Geometry matches current geometry (good)
Input basis set matches current basis set (good)
MOs were renormalized
MOs were reorthogonalized (Cholesky)
                      ------------------
                      INITIAL GUESS DONE (   0.0 sec)
                      ------------------
-------------------
DFT GRID GENERATION
-------------------

General Integration Accuracy     IntAcc      ... 4.388
Radial Grid Type                 RadialGrid  ... OptM3 with GC (2021)
Angular Grid (max. ang.)         AngularGrid ... 4 (Lebedev-302)
Angular grid pruning method      GridPruning ... 4 (adaptive)
Weight generation scheme         WeightScheme... Becke
Basis function cutoff            BFCut       ... 1.0000e-11
Integration weight cutoff        WCut        ... 1.0000e-14
Angular grids for H and He will be reduced by one unit
Partially contracted basis set               ... off
Rotationally invariant grid construction     ... off

Total number of grid points                  ...    27376
Total number of batches                      ...      430
Average number of points per batch           ...       63
Average number of grid points per atom       ...     5475
Time for grid setup =    0.128 sec

--------------------
COSX GRID GENERATION
--------------------

GRIDX 1
-------
General Integration Accuracy     IntAcc      ... 3.816
Radial Grid Type                 RadialGrid  ... OptM3 with GC (2021)
Angular Grid (max. ang.)         AngularGrid ... 1 (Lebedev-50)
Angular grid pruning method      GridPruning ... 4 (adaptive)
Weight generation scheme         WeightScheme... Becke
Basis function cutoff            BFCut       ... 1.0000e-11
Integration weight cutoff        WCut        ... 1.0000e-14
Angular grids for H and He will be reduced by one unit
Partially contracted basis set               ... on
Rotationally invariant grid construction     ... off

Total number of grid points                  ...     3328
Total number of batches                      ...       54
Average number of points per batch           ...       61
Average number of grid points per atom       ...      666
UseSFitting                                  ... on

GRIDX 2
-------
General Integration Accuracy     IntAcc      ... 4.020
Radial Grid Type                 RadialGrid  ... OptM3 with GC (2021)
Angular Grid (max. ang.)         AngularGrid ... 2 (Lebedev-110)
Angular grid pruning method      GridPruning ... 4 (adaptive)
Weight generation scheme         WeightScheme... Becke
Basis function cutoff            BFCut       ... 1.0000e-11
Integration weight cutoff        WCut        ... 1.0000e-14
Angular grids for H and He will be reduced by one unit
Partially contracted basis set               ... on
Rotationally invariant grid construction     ... off

Total number of grid points                  ...     7418
Total number of batches                      ...      117
Average number of points per batch           ...       63
Average number of grid points per atom       ...     1484
UseSFitting                                  ... on

GRIDX 3
-------
General Integration Accuracy     IntAcc      ... 4.338
Radial Grid Type                 RadialGrid  ... OptM3 with GC (2021)
Angular Grid (max. ang.)         AngularGrid ... 3 (Lebedev-194)
Angular grid pruning method      GridPruning ... 4 (adaptive)
Weight generation scheme         WeightScheme... Becke
Basis function cutoff            BFCut       ... 1.0000e-11
Integration weight cutoff        WCut        ... 1.0000e-14
Angular grids for H and He will be reduced by one unit
Partially contracted basis set               ... on
Rotationally invariant grid construction     ... off

Total number of grid points                  ...    17648
Total number of batches                      ...      279
Average number of points per batch           ...       63
Average number of grid points per atom       ...     3530
UseSFitting                                  ... on

Time for X-Grid setup             =    0.121 sec

--------------
SCF ITERATIONS
--------------
ITER       Energy         Delta-E        Max-DP      RMS-DP      [F,P]     Damp
               ***  Starting incremental Fock matrix formation  ***
                      *** Initiating the SOSCF procedure ***
                      *** Re-Reading the Fockian *** 
                      *** Removing any level shift *** 
ITER      Energy       Delta-E        Grad      Rot      Max-DP    RMS-DP
  0   -959.24617830 -959.2461783037  0.000014  0.000014  0.000022  0.000002
               *** Restarting incremental Fock matrix formation ***
  1   -959.24617831  -0.0000000033  0.000007  0.000021  0.000018  0.000001
                  ***Gradient check signals convergence***
              ***Rediagonalizing the Fockian in SOSCF/NRSCF***

               *****************************************************
               *                     SUCCESS                       *
               *           SCF CONVERGED AFTER   2 CYCLES          *
               *****************************************************

Old exchange energy                            =    -12.192513835 Eh
New exchange energy                            =    -12.192516888 Eh
Exchange energy change after final integration =     -0.000003053 Eh
Total energy after final integration           =   -959.246181361 Eh
Final COS-X integration done in                =     0.527 sec

----------------
TOTAL SCF ENERGY
----------------

Total Energy       :         -959.24618136 Eh          -26102.41562 eV

Components:
Nuclear Repulsion  :          132.90706040 Eh            3616.58498 eV
Electronic Energy  :        -1092.15324176 Eh          -29719.00059 eV
One Electron Energy:        -1587.53190505 Eh          -43198.93933 eV
Two Electron Energy:          495.37866329 Eh           13479.93873 eV
Max COSX asymmetry :            0.00000183 Eh               0.00005 eV

Virial components:
Potential Energy   :        -1916.32540678 Eh          -52145.86536 eV
Kinetic Energy     :          957.07922542 Eh           26043.44975 eV
Virial Ratio       :            2.00226413


DFT components:
N(Alpha)           :       20.999997588559 electrons
N(Beta)            :       20.999997588559 electrons
N(Total)           :       41.999995177118 electrons
E(X)               :      -48.377615244189 Eh       
E(C)               :       -1.957573808070 Eh       
E(XC)              :      -50.335189052260 Eh       
DFET-embed. en.    :        0.000000000000 Eh       

---------------
SCF CONVERGENCE
---------------

  Last Energy change         ...   -6.4108e-10  Tolerance :   1.0000e-08
  Last MAX-Density change    ...    8.4377e-15  Tolerance :   1.0000e-07
  Last RMS-Density change    ...    2.3214e-16  Tolerance :   5.0000e-09
  Last Orbital Gradient      ...    1.9043e-06  Tolerance :   1.0000e-05
  Last Orbital Rotation      ...    5.0054e-06  Tolerance :   1.0000e-05

             **** THE GBW FILE WAS UPDATED (CH2Cl2-raman.gbw) ****
             **** DENSITY CH2Cl2-raman.scfp WAS UPDATED ****
             **** ENERGY FILE WAS UPDATED (CH2Cl2-raman.en.tmp) ****
             **** THE GBW FILE WAS UPDATED (CH2Cl2-raman.gbw) ****
             **** DENSITY CH2Cl2-raman.scfp WAS UPDATED ****
----------------
ORBITAL ENERGIES
----------------

  NO   OCC          E(Eh)            E(eV) 
   0   2.0000    -101.501923     -2762.0077 
   1   2.0000    -101.501890     -2762.0068 
   2   2.0000     -10.297694      -280.2145 
   3   2.0000      -9.456803      -257.3327 
   4   2.0000      -9.456772      -257.3318 
   5   2.0000      -7.226256      -196.6364 
   6   2.0000      -7.226233      -196.6358 
   7   2.0000      -7.215869      -196.3538 
   8   2.0000      -7.215848      -196.3532 
   9   2.0000      -7.215351      -196.3397 
  10   2.0000      -7.215335      -196.3393 
  11   2.0000      -0.890873       -24.2419 
  12   2.0000      -0.816785       -22.2258 
  13   2.0000      -0.653014       -17.7694 
  14   2.0000      -0.489064       -13.3081 
  15   2.0000      -0.454149       -12.3580 
  16   2.0000      -0.438465       -11.9312 
  17   2.0000      -0.319792        -8.7020 
  18   2.0000      -0.316916        -8.6237 
  19   2.0000      -0.301333        -8.1997 
  20   2.0000      -0.295489        -8.0407 
  21   0.0000       0.009718         0.2644 
  22   0.0000       0.048375         1.3163 
  23   0.0000       0.070802         1.9266 
  24   0.0000       0.097560         2.6548 
  25   0.0000       0.392246        10.6735 
  26   0.0000       0.399726        10.8771 
  27   0.0000       0.417955        11.3731 
  28   0.0000       0.460652        12.5350 
  29   0.0000       0.558859        15.2073 
  30   0.0000       0.608331        16.5535 
  31   0.0000       0.613428        16.6922 
  32   0.0000       0.703031        19.1304 
  33   0.0000       0.737534        20.0693 
  34   0.0000       0.764305        20.7978 
  35   0.0000       0.767224        20.8772 
  36   0.0000       0.777966        21.1695 
  37   0.0000       0.780352        21.2345 
  38   0.0000       0.781084        21.2544 
  39   0.0000       0.789854        21.4930 
  40   0.0000       0.793578        21.5944 
  41   0.0000       0.806374        21.9426 
  42   0.0000       0.834310        22.7027 
  43   0.0000       0.855062        23.2674 
  44   0.0000       0.876797        23.8589 
  45   0.0000       1.018110        27.7042 
  46   0.0000       1.091874        29.7114 
  47   0.0000       1.253200        34.1013 
  48   0.0000       1.263506        34.3817 
  49   0.0000       1.329833        36.1866 
  50   0.0000       1.502928        40.8967 
  51   0.0000       1.638247        44.5790 
  52   0.0000       1.845678        50.2234 
  53   0.0000       1.864548        50.7369 
  54   0.0000       1.951008        53.0896 
  55   0.0000       2.165388        58.9232 
  56   0.0000       2.167578        58.9828 
  57   0.0000       2.318324        63.0848 
  58   0.0000       2.717942        73.9589 
  59   0.0000       2.840028        77.2811 

                    ********************************
                    * MULLIKEN POPULATION ANALYSIS *
                    ********************************

-----------------------
MULLIKEN ATOMIC CHARGES
-----------------------
   0 C :    0.062952
   1 Cl:   -0.128458
   2 H :    0.096998
   3 Cl:   -0.128431
   4 H :    0.096939
Sum of atomic charges:    0.0000000

--------------------------------
MULLIKEN REDUCED ORBITAL CHARGES
--------------------------------
  0 C s       :     3.096998  s :     3.096998
      pz      :     0.881217  p :     2.790013
      px      :     0.893231
      py      :     1.015564
      dz2     :     0.009564  d :     0.050038
      dxz     :     0.011199
      dyz     :     0.010041
      dx2y2   :     0.007666
      dxy     :     0.011568
  1 Cls       :     5.958043  s :     5.958043
      pz      :     3.935280  p :    11.137941
      px      :     3.461084
      py      :     3.741577
      dz2     :     0.005231  d :     0.032474
      dxz     :     0.003882
      dyz     :     0.001854
      dx2y2   :     0.007358
      dxy     :     0.014149
  2 H s       :     0.881120  s :     0.881120
      pz      :     0.006202  p :     0.021882
      px      :     0.008626
      py      :     0.007053
  3 Cls       :     5.958064  s :     5.958064
      pz      :     3.393362  p :    11.137885
      px      :     3.829264
      py      :     3.915258
      dz2     :     0.011796  d :     0.032482
      dxz     :     0.010445
      dyz     :     0.007214
      dx2y2   :     0.001200
      dxy     :     0.001828
  4 H s       :     0.881182  s :     0.881182
      pz      :     0.005904  p :     0.021879
      px      :     0.004136
      py      :     0.011839


                     *******************************
                     * LOEWDIN POPULATION ANALYSIS *
                     *******************************

----------------------
LOEWDIN ATOMIC CHARGES
----------------------
   0 C :   -0.145225
   1 Cl:    0.048097
   2 H :    0.024480
   3 Cl:    0.048174
   4 H :    0.024474

-------------------------------
LOEWDIN REDUCED ORBITAL CHARGES
-------------------------------
  0 C s       :     2.975285  s :     2.975285
      pz      :     0.981512  p :     3.060985
      px      :     0.997316
      py      :     1.082157
      dz2     :     0.019373  d :     0.108955
      dxz     :     0.024616
      dyz     :     0.023188
      dx2y2   :     0.016339
      dxy     :     0.025438
  1 Cls       :     5.794435  s :     5.794435
      pz      :     3.920783  p :    11.121138
      px      :     3.466848
      py      :     3.733507
      dz2     :     0.006148  d :     0.036330
      dxz     :     0.003920
      dyz     :     0.001877
      dx2y2   :     0.007673
      dxy     :     0.016711
  2 H s       :     0.903935  s :     0.903935
      pz      :     0.021603  p :     0.071585
      px      :     0.028760
      py      :     0.021222
  3 Cls       :     5.794395  s :     5.794395
      pz      :     3.399807  p :    11.121090
      px      :     3.820806
      py      :     3.900477
      dz2     :     0.013287  d :     0.036341
      dxz     :     0.012020
      dyz     :     0.007790
      dx2y2   :     0.001218
      dxy     :     0.002026
  4 H s       :     0.903947  s :     0.903947
      pz      :     0.020549  p :     0.071580
      px      :     0.012925
      py      :     0.038106


                      *****************************
                      * MAYER POPULATION ANALYSIS *
                      *****************************

  NA   - Mulliken gross atomic population
  ZA   - Total nuclear charge
  QA   - Mulliken gross atomic charge
  VA   - Mayer's total valence
  BVA  - Mayer's bonded valence
  FA   - Mayer's free valence

  ATOM       NA         ZA         QA         VA         BVA        FA
  0 C      5.9370     6.0000     0.0630     3.9750     3.9750    -0.0000
  1 Cl    17.1285    17.0000    -0.1285     1.0966     1.0966     0.0000
  2 H      0.9030     1.0000     0.0970     0.9748     0.9748     0.0000
  3 Cl    17.1284    17.0000    -0.1284     1.0967     1.0967    -0.0000
  4 H      0.9031     1.0000     0.0969     0.9748     0.9748    -0.0000

  Mayer bond orders larger than 0.100000
B(  0-C ,  1-Cl) :   1.0278 B(  0-C ,  2-H ) :   0.9596 B(  0-C ,  3-Cl) :   1.0279 
B(  0-C ,  4-H ) :   0.9597 

-------
TIMINGS
-------

Total SCF time: 0 days 0 hours 0 min 1 sec 

Total time                  ....       1.915 sec
Sum of individual times     ....       1.856 sec  ( 96.9%)

Fock matrix formation       ....       1.600 sec  ( 83.5%)
  Split-RI-J                ....       0.140 sec  (  8.8% of F)
  Chain of spheres X        ....       1.190 sec  ( 74.4% of F)
  XC integration            ....       0.282 sec  ( 17.7% of F)
    Basis function eval.    ....       0.115 sec  ( 40.8% of XC)
    Density eval.           ....       0.041 sec  ( 14.4% of XC)
    XC-Functional eval.     ....       0.062 sec  ( 22.0% of XC)
    XC-Potential eval.      ....       0.039 sec  ( 13.8% of XC)
Diagonalization             ....       0.000 sec  (  0.0%)
Density matrix formation    ....       0.000 sec  (  0.0%)
Population analysis         ....       0.005 sec  (  0.3%)
Initial guess               ....       0.001 sec  (  0.0%)
Orbital Transformation      ....       0.000 sec  (  0.0%)
Orbital Orthonormalization  ....       0.000 sec  (  0.0%)
DIIS solution               ....       0.000 sec  (  0.0%)
SOSCF solution              ....       0.000 sec  (  0.0%)
Grid generation             ....       0.249 sec  ( 13.0%)

Maximum memory used throughout the entire SCF-calculation: 47.8 MB

-------------------------   --------------------
FINAL SINGLE POINT ENERGY      -959.246181361132
-------------------------   --------------------

                                *** OPTIMIZATION RUN DONE ***

                            ***************************************
                            *     ORCA property calculations      *
                            ***************************************

                                    ---------------------
                                    Active property flags
                                    ---------------------
   (+) Dipole Moment
   (+) Polarizability


------------------------------------------------------------------------------
                       ORCA ELECTRIC PROPERTIES CALCULATION
------------------------------------------------------------------------------

Dipole Moment Calculation                       ... on
Quadrupole Moment Calculation                   ... off
Polarizability Calculation                      ... Analytic (CP-SCF)
GBWName                                         ... CH2Cl2-raman.gbw
Electron density                                ... CH2Cl2-raman.scfp
The origin for moment calculation is the CENTER OF MASS  = (-10.736446,  5.864064  1.089615)

-------------
DIPOLE MOMENT
-------------
                                X             Y             Z
Electronic contribution:     -0.98312       0.70435       2.18747
Nuclear contribution   :      1.23610      -0.88564      -2.74994
                        -----------------------------------------
Total Dipole Moment    :      0.25297      -0.18128      -0.56247
                        -----------------------------------------
Magnitude (a.u.)       :      0.64283
Magnitude (Debye)      :      1.63395



--------------------
Rotational spectrum 
--------------------
 
Rotational constants in cm-1:     1.077021     0.105388     0.097826 
Rotational constants in MHz : 32288.284589  3159.452384  2932.758838 

 Dipole components along the rotational axes: 
x,y,z [a.u.] :    -0.000183    -0.642832     0.000069 
x,y,z [Debye]:    -0.000465    -1.633949     0.000175 

 
Transforming and storing MO dipole integrals   ... done

                ... starting polarizability calculation

The origin for moment calculation is the CENTER OF MASS  = (-10.736446,  5.864064  1.089615)
Opening the Dipole integral file               ... (CH2Cl2-raman.dmo.tmp) done
Reading Dipole-MO integrals                    ... done
Solving CP-SCF equations                       ... 
------------------------------------------------------------------------------
                           ORCA CP-SCF CALCULATION
------------------------------------------------------------------------------

Input orbitals are from        ... CH2Cl2-raman.gbw
Input Perturbation             ... CH2Cl2-raman.cpv.tmp
Wavefunction output            ... CH2Cl2-raman.cpu.tmp
Perturbation mode              ... Real perturbation (singlet)
Solver                         ... POPLE
Max. number of iterations      ... 64
Convergence tolerance          ... 1.000e-04
Integral handling              ... Direct
DFT GridXC                     ... 1
COSX GridX                     ... 1
COSX IntAccX                   ... 3.067
COSX Algorithm                 ... Auto
Number of perturbations        ... 3
Number of operators            ... 1
Orbital ranges used for CP-SCF:
 Operator 0:  Orbitals   0... 20  to  21... 59
Variables per perturbation     ... 819
DFT calculation                         ... on
XC functional terms                     ... on
Exchange functional (SCF)               ... B88
Exchange functional (CP-SCF)            ... B88
   X-Alpha parameter    XAlpha (SCF)    ...  0.666667
   X-Alpha parameter    XAlpha (CP-SCF) ...  0.666667
   Becke's b parameter  XBeta (SCF)     ...  0.004200
   Becke's b parameter  XBeta (CP-SCF)  ...  0.004200
Correlation functional (SCF)            ... LYP
Correlation functional (CP-SCF)         ... LYP
 LDA part of GGA corr.  LDAOpt (SCF)    ... VWN-5
 LDA part of GGA corr.  LDAOpt (CP-SCF) ... VWN-5
Hybrid DFT                              ... on
   Exchange mixing (SCF)                ...  0.200
   Exchange mixing (CP-SCF)             ...  0.200
   GGA exch. scaling(SCF)               ...  0.720
   GGA exch. scaling (CP-SCF)           ...  0.720
   GGA corr. scaling (SCF)              ...  0.810
   GGA corr. scaling (CP-SCF)           ...  0.810

CP-SCF GRID
-----------

General Integration Accuracy     IntAcc      ... 3.467
Radial Grid Type                 RadialGrid  ... OptM3 with GC (2021)
Angular Grid (max. ang.)         AngularGrid ... 1 (Lebedev-50)
Angular grid pruning method      GridPruning ... 4 (adaptive)
Weight generation scheme         WeightScheme... Becke
Basis function cutoff            BFCut       ... 1.0000e-11
Integration weight cutoff        WCut        ... 1.0000e-14
Angular grids for H and He will be reduced by one unit
Partially contracted basis set               ... off
Rotationally invariant grid construction     ... off

Total number of grid points                  ...     3949
Total number of batches                      ...       63
Average number of points per batch           ...       62
Average number of grid points per atom       ...      790

CP-SCF GRIDX
------------

General Integration Accuracy     IntAcc      ... 3.067
Radial Grid Type                 RadialGrid  ... OptM3 with GC (2021)
Angular Grid (max. ang.)         AngularGrid ... 1 (Lebedev-50)
Angular grid pruning method      GridPruning ... 4 (adaptive)
Weight generation scheme         WeightScheme... Becke
Basis function cutoff            BFCut       ... 1.0000e-11
Integration weight cutoff        WCut        ... 1.0000e-14
Angular grids for H and He will be reduced by one unit
Partially contracted basis set               ... on
Rotationally invariant grid construction     ... off

Total number of grid points                  ...     1899
Total number of batches                      ...       31
Average number of points per batch           ...       61
Average number of grid points per atom       ...      380

Recalculating density on grid  ... done
Calculating the xc-kernel      ... done
Memory available               ... 1017.2 MB
Memory needed per perturbation ...   1.0 MB
Perturbations treated per batch... 3
Number of batches              ... 1
     CP-SCF ITERATION   0:   3.2335e+00 (   0.2 sec   0/  3 done)
     CP-SCF ITERATION   1:   3.5666e-01 (   0.2 sec   0/  3 done)
     CP-SCF ITERATION   2:   7.3878e-02 (   0.2 sec   0/  3 done)
     CP-SCF ITERATION   3:   1.6488e-02 (   0.2 sec   0/  3 done)
     CP-SCF ITERATION   4:   3.2763e-03 (   0.2 sec   0/  3 done)
     CP-SCF ITERATION   5:   6.9175e-04 (   0.2 sec   0/  3 done)
     CP-SCF ITERATION   6:   9.7652e-05 (   0.2 sec   3/  3 done)
                    *** THE CP-SCF HAS CONVERGED ***
done
Reading CP-SCF coefficients                    ... done
Doing the polarizability tensor                ... done
Cleaning up                                    ... done

-------------------------
THE POLARIZABILITY TENSOR
-------------------------

The raw cartesian tensor (atomic units):
   31.45372     -7.66261      5.24929  
   -7.66261     24.97250     -3.35167  
    5.24929     -3.35167     28.70410  
diagonalized tensor: 
   19.89167     25.26482     39.97382  

    0.55753     -0.39352      0.73096  
    0.83000      0.28166     -0.48143  
   -0.01643      0.87511      0.48365  

Isotropic polarizability :  28.37677


----------------------------------------------------------------------------
                           ORCA NUMERICAL FREQUENCIES
----------------------------------------------------------------------------

Number of atoms                ... 5
Central differences            ... used
Number of displacements        ... 30
Numerical increment            ... 5.000e-03 bohr
IR-spectrum generation         ... on
Raman-spectrum generation      ... on
Polarizability calculation     ... 1
Surface Crossing Hessian       ... off

The output will be reduced. Please look at the following files:
SCF program output             ... >CH2Cl2-raman.lastscf
Integral program output        ... >CH2Cl2-raman.lastint
Gradient program output        ... >CH2Cl2-raman.lastgrad
Dipole moment program output   ... >CH2Cl2-raman.lastmom
AutoCI program output          ... >CH2Cl2-raman.lastautoci

	<< Calculating on displaced geometry   1 (of  30) >>
	<< Calculating on displaced geometry   2 (of  30) >>
	<< Calculating on displaced geometry   3 (of  30) >>
	<< Calculating on displaced geometry   4 (of  30) >>
	<< Calculating on displaced geometry   5 (of  30) >>
	<< Calculating on displaced geometry   6 (of  30) >>
	<< Calculating on displaced geometry   7 (of  30) >>
	<< Calculating on displaced geometry   8 (of  30) >>
	<< Calculating on displaced geometry   9 (of  30) >>
	<< Calculating on displaced geometry  10 (of  30) >>
	<< Calculating on displaced geometry  11 (of  30) >>
	<< Calculating on displaced geometry  12 (of  30) >>
	<< Calculating on displaced geometry  13 (of  30) >>
	<< Calculating on displaced geometry  14 (of  30) >>
	<< Calculating on displaced geometry  15 (of  30) >>
	<< Calculating on displaced geometry  16 (of  30) >>
	<< Calculating on displaced geometry  17 (of  30) >>
	<< Calculating on displaced geometry  18 (of  30) >>
	<< Calculating on displaced geometry  19 (of  30) >>
	<< Calculating on displaced geometry  20 (of  30) >>
	<< Calculating on displaced geometry  21 (of  30) >>
	<< Calculating on displaced geometry  22 (of  30) >>
	<< Calculating on displaced geometry  23 (of  30) >>
	<< Calculating on displaced geometry  24 (of  30) >>
	<< Calculating on displaced geometry  25 (of  30) >>
	<< Calculating on displaced geometry  26 (of  30) >>
	<< Calculating on displaced geometry  27 (of  30) >>
	<< Calculating on displaced geometry  28 (of  30) >>
	<< Calculating on displaced geometry  29 (of  30) >>
	<< Calculating on displaced geometry  30 (of  30) >>

-----------------------
VIBRATIONAL FREQUENCIES
-----------------------

Scaling factor for frequencies =  1.000000000 (already applied!)

   0:         0.00 cm**-1
   1:         0.00 cm**-1
   2:         0.00 cm**-1
   3:         0.00 cm**-1
   4:         0.00 cm**-1
   5:         0.00 cm**-1
   6:       277.06 cm**-1
   7:       703.48 cm**-1
   8:       732.67 cm**-1
   9:       888.90 cm**-1
  10:      1153.83 cm**-1
  11:      1272.67 cm**-1
  12:      1441.64 cm**-1
  13:      3106.65 cm**-1
  14:      3193.09 cm**-1


------------
NORMAL MODES
------------

These modes are the cartesian displacements weighted by the diagonal matrix
M(i,i)=1/sqrt(m[i]) where m[i] is the mass of the displaced atom
Thus, these vectors are normalized but *not* orthogonal

                  0          1          2          3          4          5    
      0       0.000000   0.000000   0.000000   0.000000   0.000000   0.000000
      1       0.000000   0.000000   0.000000   0.000000   0.000000   0.000000
      2       0.000000   0.000000   0.000000   0.000000   0.000000   0.000000
      3       0.000000   0.000000   0.000000   0.000000   0.000000   0.000000
      4       0.000000   0.000000   0.000000   0.000000   0.000000   0.000000
      5       0.000000   0.000000   0.000000   0.000000   0.000000   0.000000
      6       0.000000   0.000000   0.000000   0.000000   0.000000   0.000000
      7       0.000000   0.000000   0.000000   0.000000   0.000000   0.000000
      8       0.000000   0.000000   0.000000   0.000000   0.000000   0.000000
      9       0.000000   0.000000   0.000000   0.000000   0.000000   0.000000
     10       0.000000   0.000000   0.000000   0.000000   0.000000   0.000000
     11       0.000000   0.000000   0.000000   0.000000   0.000000   0.000000
     12       0.000000   0.000000   0.000000   0.000000   0.000000   0.000000
     13       0.000000   0.000000   0.000000   0.000000   0.000000   0.000000
     14       0.000000   0.000000   0.000000   0.000000   0.000000   0.000000
                  6          7          8          9         10         11    
      0       0.164144   0.247071   0.517398  -0.094521  -0.000117  -0.067373
      1      -0.117117  -0.176272  -0.339775  -0.141954   0.000393   0.044265
      2      -0.364194  -0.541932   0.345816   0.002753  -0.000064  -0.044583
      3       0.316773  -0.139615  -0.133495   0.011926  -0.006827  -0.007590
      4      -0.206847   0.094616   0.089917   0.017998  -0.010081   0.005331
      5       0.303304   0.044419   0.016526  -0.000282   0.000226   0.007683
      6       0.169658   0.248602   0.343043  -0.110946   0.518823   0.512194
      7      -0.114478  -0.087046  -0.228191   0.394701  -0.342613  -0.337634
      8      -0.370745  -0.457479   0.227953   0.563048   0.342392   0.339158
      9      -0.381789   0.044198  -0.061272   0.011983   0.006762   0.001145
     10       0.253304  -0.026464   0.038110   0.018011   0.010053  -0.001057
     11      -0.158905   0.165048  -0.146801  -0.000404  -0.000269  -0.011930
     12       0.161188   0.163343   0.342094   0.396306  -0.515141   0.517278
     13      -0.123979  -0.209592  -0.226066   0.030284   0.338911  -0.340144
     14      -0.368388  -0.452333   0.233410  -0.571731  -0.340119   0.341441
                 12         13         14    
      0      -0.030927  -0.025673  -0.055971
      1       0.022065   0.018457  -0.083304
      2       0.068827   0.057199   0.001703
      3      -0.003334   0.000027   0.000187
      4       0.002280  -0.000022   0.000284
      5       0.001039  -0.000263  -0.000005
      6      -0.008551   0.480965   0.480331
      7      -0.505037   0.385669   0.376511
      8      -0.491235  -0.342608  -0.350620
      9       0.001089   0.000161   0.000192
     10      -0.000647  -0.000115   0.000292
     11       0.003975  -0.000191  -0.000010
     12       0.456027  -0.181672   0.173286
     13       0.184666  -0.600792   0.595846
     14      -0.505248  -0.322992   0.330833


-----------
IR SPECTRUM
-----------

 Mode   freq       eps      Int      T**2         TX        TY        TZ
       cm**-1   L/(mol*cm) km/mol    a.u.
----------------------------------------------------------------------------
  6:    277.06   0.000125    0.63  0.000141  ( 0.004810 -0.003462 -0.010280)
  7:    703.48   0.002792   14.11  0.001239  ( 0.014468 -0.010341 -0.030371)
  8:    732.67   0.026932  136.10  0.011471  ( 0.078111 -0.051504  0.052124)
  9:    888.90   0.000134    0.68  0.000047  ( 0.003688  0.005781 -0.000314)
 10:   1153.83   0.000016    0.08  0.000004  (-0.000854 -0.001881  0.000116)
 11:   1272.67   0.008426   42.58  0.002066  (-0.033294  0.021897 -0.021865)
 12:   1441.64   0.000001    0.01  0.000000  ( 0.000079 -0.000226 -0.000406)
 13:   3106.65   0.001932    9.77  0.000194  (-0.005074  0.003847  0.012392)
 14:   3193.09   0.000066    0.33  0.000006  (-0.001456 -0.002073 -0.000018)

* The epsilon (eps) is given for a Dirac delta lineshape.
** The dipole moment derivative (T) already includes vibrational overlap.

--------------
RAMAN SPECTRUM  
--------------

 Mode    freq (cm**-1)   Activity   Depolarization
-------------------------------------------------------------------
   6:       277.06      6.825219      0.561371
   7:       703.48     12.272202      0.108665
   8:       732.67      5.020651      0.749906
   9:       888.90      3.131718      0.749991
  10:      1153.83     11.782831      0.750000
  11:      1272.67      3.014136      0.749936
  12:      1441.64     12.420401      0.735609
  13:      3106.65    108.695699      0.074948
  14:      3193.09     62.652693      0.749999

The first frequency considered to be a vibration is 6
The total number of vibrations considered is 9


--------------------------
THERMOCHEMISTRY AT 298.15K
--------------------------

Temperature         ... 298.15 K
Pressure            ... 1.00 atm
Total Mass          ... 84.93 AMU

Throughout the following assumptions are being made:
  (1) The electronic state is orbitally nondegenerate
  (2) There are no thermally accessible electronically excited states
  (3) Hindered rotations indicated by low frequency modes are not
      treated as such but are treated as vibrations and this may
      cause some error
  (4) All equations used are the standard statistical mechanics
      equations for an ideal gas
  (5) All vibrations are strictly harmonic

freq.     277.06  E(vib)   ...       0.28 
freq.     703.48  E(vib)   ...       0.07 
freq.     732.67  E(vib)   ...       0.06 
freq.     888.90  E(vib)   ...       0.04 
freq.    1153.83  E(vib)   ...       0.01 
freq.    1272.67  E(vib)   ...       0.01 
freq.    1441.64  E(vib)   ...       0.00 
freq.    3106.65  E(vib)   ...       0.00 
freq.    3193.09  E(vib)   ...       0.00 

------------
INNER ENERGY
------------

The inner energy is: U= E(el) + E(ZPE) + E(vib) + E(rot) + E(trans)
    E(el)   - is the total energy from the electronic structure calculation
              = E(kin-el) + E(nuc-el) + E(el-el) + E(nuc-nuc)
    E(ZPE)  - the the zero temperature vibrational energy from the frequency calculation
    E(vib)  - the the finite temperature correction to E(ZPE) due to population
              of excited vibrational states
    E(rot)  - is the rotational thermal energy
    E(trans)- is the translational thermal energy

Summary of contributions to the inner energy U:
Electronic energy                ...   -959.24618136 Eh
Zero point energy                ...      0.02909218 Eh      18.26 kcal/mol
Thermal vibrational correction   ...      0.00075637 Eh       0.47 kcal/mol
Thermal rotational correction    ...      0.00141627 Eh       0.89 kcal/mol
Thermal translational correction ...      0.00141627 Eh       0.89 kcal/mol
-----------------------------------------------------------------------
Total thermal energy                   -959.21350028 Eh


Summary of corrections to the electronic energy:
(perhaps to be used in another calculation)
Total thermal correction                  0.00358891 Eh       2.25 kcal/mol
Non-thermal (ZPE) correction              0.02909218 Eh      18.26 kcal/mol
-----------------------------------------------------------------------
Total correction                          0.03268109 Eh      20.51 kcal/mol


--------
ENTHALPY
--------

The enthalpy is H = U + kB*T
                kB is Boltzmann's constant
Total free energy                 ...   -959.21350028 Eh 
Thermal Enthalpy correction       ...      0.00094421 Eh       0.59 kcal/mol
-----------------------------------------------------------------------
Total Enthalpy                    ...   -959.21255607 Eh


Note: Only C1 symmetry has been detected, increase convergence thresholds 
      if your molecule has a higher symmetry. Symmetry factor of 1.0 is   
      used for the rotational entropy correction. 
 

Note: Rotational entropy computed according to Herzberg 
Infrared and Raman Spectra, Chapter V,1, Van Nostrand Reinhold, 1945 
Point Group:  C1, Symmetry Number:   1  
Rotational constants in cm-1:     1.077021     0.105388     0.097826 

Vibrational entropy computed according to the QRRHO of S. Grimme
Chem.Eur.J. 2012 18 9955


-------
ENTROPY
-------

The entropy contributions are T*S = T*(S(el)+S(vib)+S(rot)+S(trans))
     S(el)   - electronic entropy
     S(vib)  - vibrational entropy
     S(rot)  - rotational entropy
     S(trans)- translational entropy
The entropies will be listed as multiplied by the temperature to get
units of energy

Electronic entropy                ...      0.00000000 Eh      0.00 kcal/mol
Vibrational entropy               ...      0.00112633 Eh      0.71 kcal/mol
Rotational entropy                ...      0.01163544 Eh      7.30 kcal/mol
Translational entropy             ...      0.01863995 Eh     11.70 kcal/mol
-----------------------------------------------------------------------
Final entropy term                ...      0.03140173 Eh     19.70 kcal/mol

In case the symmetry of your molecule has not been determined correctly
or in case you have a reason to use a different symmetry number we print 
out the resulting rotational entropy values for sn=1,12 :
 --------------------------------------------------------
|  sn= 1 | S(rot)=       0.01163544 Eh      7.30 kcal/mol|
|  sn= 2 | S(rot)=       0.01098098 Eh      6.89 kcal/mol|
|  sn= 3 | S(rot)=       0.01059815 Eh      6.65 kcal/mol|
|  sn= 4 | S(rot)=       0.01032653 Eh      6.48 kcal/mol|
|  sn= 5 | S(rot)=       0.01011584 Eh      6.35 kcal/mol|
|  sn= 6 | S(rot)=       0.00994369 Eh      6.24 kcal/mol|
|  sn= 7 | S(rot)=       0.00979815 Eh      6.15 kcal/mol|
|  sn= 8 | S(rot)=       0.00967207 Eh      6.07 kcal/mol|
|  sn= 9 | S(rot)=       0.00956086 Eh      6.00 kcal/mol|
|  sn=10 | S(rot)=       0.00946138 Eh      5.94 kcal/mol|
|  sn=11 | S(rot)=       0.00937139 Eh      5.88 kcal/mol|
|  sn=12 | S(rot)=       0.00928924 Eh      5.83 kcal/mol|
 --------------------------------------------------------


-------------------
GIBBS FREE ENERGY
-------------------

The Gibbs free energy is G = H - T*S

Total enthalpy                    ...   -959.21255607 Eh 
Total entropy correction          ...     -0.03140173 Eh    -19.70 kcal/mol
-----------------------------------------------------------------------
Final Gibbs free energy         ...   -959.24395779 Eh

For completeness - the Gibbs free energy minus the electronic energy
G-E(el)                           ...      0.00222357 Eh      1.40 kcal/mol



Timings for individual modules:

Sum of individual times         ...      233.255 sec (=   3.888 min)
GTO integral calculation        ...        0.334 sec (=   0.006 min)   0.1 %
SCF iterations                  ...        7.323 sec (=   0.122 min)   3.1 %
Solution of CP-SCF eqns.        ...        1.571 sec (=   0.026 min)   0.7 %
SCF Gradient evaluation         ...        2.331 sec (=   0.039 min)   1.0 %
Geometry relaxation             ...        0.031 sec (=   0.001 min)   0.0 %
Numerical frequency calculation ...      221.666 sec (=   3.694 min)  95.0 %
                             ****ORCA TERMINATED NORMALLY****
TOTAL RUN TIME: 0 days 0 hours 3 minutes 50 seconds 510 msec
