
                                 *****************
                                 * O   R   C   A *
                                 *****************

                                            #,                                       
                                            ###                                      
                                            ####                                     
                                            #####                                    
                                            ######                                   
                                           ########,                                 
                                     ,,################,,,,,                         
                               ,,#################################,,                 
                          ,,##########################################,,             
                       ,#########################################, ''#####,          
                    ,#############################################,,   '####,        
                  ,##################################################,,,,####,       
                ,###########''''           ''''###############################       
              ,#####''   ,,,,##########,,,,          '''####'''          '####       
            ,##' ,,,,###########################,,,                        '##       
           ' ,,###''''                  '''############,,,                           
         ,,##''                                '''############,,,,        ,,,,,,###''
      ,#''                                            '''#######################'''  
     '                                                          ''''####''''         
             ,#######,   #######,   ,#######,      ##                                
            ,#'     '#,  ##    ##  ,#'     '#,    #''#        ######   ,####,        
            ##       ##  ##   ,#'  ##            #'  '#       #        #'  '#        
            ##       ##  #######   ##           ,######,      #####,   #    #        
            '#,     ,#'  ##    ##  '#,     ,#' ,#      #,         ##   #,  ,#        
             '#######'   ##     ##  '#######'  #'      '#     #####' # '####'        



                  #######################################################
                  #                        -***-                        #
                  #          Department of theory and spectroscopy      #
                  #    Directorship and core code : Frank Neese         #
                  #        Max Planck Institute fuer Kohlenforschung    #
                  #                Kaiser Wilhelm Platz 1               #
                  #                 D-45470 Muelheim/Ruhr               #
                  #                      Germany                        #
                  #                                                     #
                  #                  All rights reserved                #
                  #                        -***-                        #
                  #######################################################


                         Program Version 5.0.4 -  RELEASE  -


 With contributions from (in alphabetic order):
   Daniel Aravena         : Magnetic Suceptibility
   Michael Atanasov       : Ab Initio Ligand Field Theory (pilot matlab implementation)
   Alexander A. Auer      : GIAO ZORA, VPT2 properties, NMR spectrum
   Ute Becker             : Parallelization
   Giovanni Bistoni       : ED, misc. LED, open-shell LED, HFLD
   Martin Brehm           : Molecular dynamics
   Dmytro Bykov           : SCF Hessian
   Vijay G. Chilkuri      : MRCI spin determinant printing, contributions to CSF-ICE
   Dipayan Datta          : RHF DLPNO-CCSD density
   Achintya Kumar Dutta   : EOM-CC, STEOM-CC
   Dmitry Ganyushin       : Spin-Orbit,Spin-Spin,Magnetic field MRCI
   Miquel Garcia          : C-PCM and meta-GGA Hessian, CC/C-PCM, Gaussian charge scheme
   Yang Guo               : DLPNO-NEVPT2, F12-NEVPT2, CIM, IAO-localization
   Andreas Hansen         : Spin unrestricted coupled pair/coupled cluster methods
   Benjamin Helmich-Paris : MC-RPA, TRAH-SCF, COSX integrals
   Lee Huntington         : MR-EOM, pCC
   Robert Izsak           : Overlap fitted RIJCOSX, COSX-SCS-MP3, EOM
   Marcus Kettner         : VPT2
   Christian Kollmar      : KDIIS, OOCD, Brueckner-CCSD(T), CCSD density, CASPT2, CASPT2-K
   Simone Kossmann        : Meta GGA functionals, TD-DFT gradient, OOMP2, MP2 Hessian
   Martin Krupicka        : Initial AUTO-CI
   Lucas Lang             : DCDCAS
   Marvin Lechner         : AUTO-CI (C++ implementation), FIC-MRCC
   Dagmar Lenk            : GEPOL surface, SMD
   Dimitrios Liakos       : Extrapolation schemes; Compound Job, initial MDCI parallelization
   Dimitrios Manganas     : Further ROCIS development; embedding schemes
   Dimitrios Pantazis     : SARC Basis sets
   Anastasios Papadopoulos: AUTO-CI, single reference methods and gradients
   Taras Petrenko         : DFT Hessian,TD-DFT gradient, ASA, ECA, R-Raman, ABS, FL, XAS/XES, NRVS
   Peter Pinski           : DLPNO-MP2, DLPNO-MP2 Gradient
   Christoph Reimann      : Effective Core Potentials
   Marius Retegan         : Local ZFS, SOC
   Christoph Riplinger    : Optimizer, TS searches, QM/MM, DLPNO-CCSD(T), (RO)-DLPNO pert. Triples
   Tobias Risthaus        : Range-separated hybrids, TD-DFT gradient, RPA, STAB
   Michael Roemelt        : Original ROCIS implementation
   Masaaki Saitow         : Open-shell DLPNO-CCSD energy and density
   Barbara Sandhoefer     : DKH picture change effects
   Avijit Sen             : IP-ROCIS
   Kantharuban Sivalingam : CASSCF convergence, NEVPT2, FIC-MRCI
   Bernardo de Souza      : ESD, SOC TD-DFT
   Georgi Stoychev        : AutoAux, RI-MP2 NMR, DLPNO-MP2 response
   Willem Van den Heuvel  : Paramagnetic NMR
   Boris Wezisla          : Elementary symmetry handling
   Frank Wennmohs         : Technical directorship


 We gratefully acknowledge several colleagues who have allowed us to
 interface, adapt or use parts of their codes:
   Stefan Grimme, W. Hujo, H. Kruse, P. Pracht,  : VdW corrections, initial TS optimization,
                  C. Bannwarth, S. Ehlert          DFT functionals, gCP, sTDA/sTD-DF
   Ed Valeev, F. Pavosevic, A. Kumar             : LibInt (2-el integral package), F12 methods
   Garnet Chan, S. Sharma, J. Yang, R. Olivares  : DMRG
   Ulf Ekstrom                                   : XCFun DFT Library
   Mihaly Kallay                                 : mrcc  (arbitrary order and MRCC methods)
   Jiri Pittner, Ondrej Demel                    : Mk-CCSD
   Frank Weinhold                                : gennbo (NPA and NBO analysis)
   Christopher J. Cramer and Donald G. Truhlar   : smd solvation model
   Lars Goerigk                                  : TD-DFT with DH, B97 family of functionals
   V. Asgeirsson, H. Jonsson                     : NEB implementation
   FAccTs GmbH                                   : IRC, NEB, NEB-TS, DLPNO-Multilevel, CI-OPT
                                                   MM, QMMM, 2- and 3-layer-ONIOM, Crystal-QMMM,
                                                   LR-CPCM, SF, NACMEs, symmetry and pop. for TD-DFT,
                                                   nearIR, NL-DFT gradient (VV10), updates on ESD,
                                                   ML-optimized integration grids
   S Lehtola, MJT Oliveira, MAL Marques          : LibXC Library
   Liviu Ungur et al                             : ANISO software


 Your calculation uses the libint2 library for the computation of 2-el integrals
 For citations please refer to: http://libint.valeyev.net

 Your ORCA version has been built with support for libXC version: 5.1.0
 For citations please refer to: https://tddft.org/programs/libxc/

 This ORCA versions uses:
   CBLAS   interface :  Fast vector & matrix operations
   LAPACKE interface :  Fast linear algebra routines
   SCALAPACK package :  Parallel linear algebra routines
   Shared memory     :  Shared parallel matrices
   BLAS/LAPACK       :  OpenBLAS 0.3.15  USE64BITINT DYNAMIC_ARCH NO_AFFINITY SkylakeX SINGLE_THREADED
        Core in use  :  SkylakeX
   Copyright (c) 2011-2014, The OpenBLAS Project


================================================================================

----- Orbital basis set information -----
Your calculation utilizes the basis: def2-SVP
   F. Weigend and R. Ahlrichs, Phys. Chem. Chem. Phys. 7, 3297 (2005).

----- AuxJ basis set information -----
Your calculation utilizes the auxiliary basis: def2/J
   F. Weigend, Phys. Chem. Chem. Phys. 8, 1057 (2006).

================================================================================
                                        WARNINGS
                       Please study these warnings very carefully!
================================================================================


WARNING: Geometry Optimization
  ===> : Switching off AutoStart
         For restart on a previous wavefunction, please use MOREAD

INFO   : the flag for use of the SHARK integral package has been found!

================================================================================
                                       INPUT FILE
================================================================================
NAME = CHCl3.inp
|  1> # avogadro generated ORCA input file 
|  2> # Basic Mode
|  3> # 
|  4> ! B3LYP OPT def2-SVP FREQ
|  5> 
|  6> 
|  7> * xyz 0 1
|  8> C     -5.449597    2.819765   -0.055988
|  9> Cl    -6.921212    3.790019    0.122710
| 10> Cl    -4.241217    3.691806   -1.014135
| 11> Cl    -4.792074    2.387499    1.531409
| 12> H     -5.707399    1.898077   -0.583980
| 13> *
| 14> 
| 15> 
| 16>                          ****END OF INPUT****
================================================================================

                       *****************************
                       * Geometry Optimization Run *
                       *****************************

Geometry optimization settings:
Update method            Update   .... BFGS
Choice of coordinates    CoordSys .... Z-matrix Internals
Initial Hessian          InHess   .... Almoef's Model

Convergence Tolerances:
Energy Change            TolE     ....  5.0000e-06 Eh
Max. Gradient            TolMAXG  ....  3.0000e-04 Eh/bohr
RMS Gradient             TolRMSG  ....  1.0000e-04 Eh/bohr
Max. Displacement        TolMAXD  ....  4.0000e-03 bohr
RMS Displacement         TolRMSD  ....  2.0000e-03 bohr
Strict Convergence                ....  False
------------------------------------------------------------------------------
                        ORCA OPTIMIZATION COORDINATE SETUP
------------------------------------------------------------------------------

The optimization will be done in new redundant internal coordinates
Making redundant internal coordinates   ...  (new redundants) done
Evaluating the initial hessian          ...  (Almloef) done
Evaluating the coordinates              ...  done
Calculating the B-matrix                .... done
Calculating the G-matrix                .... done
Diagonalizing the G-matrix              .... done
The first mode is                       ....    1
The number of degrees of freedom        ....    9

    -----------------------------------------------------------------
                    Redundant Internal Coordinates


    -----------------------------------------------------------------
         Definition                    Initial Value    Approx d2E/dq
    -----------------------------------------------------------------
      1. B(Cl  1,C   0)                  1.7717         0.344930   
      2. B(Cl  2,C   0)                  1.7716         0.345035   
      3. B(Cl  3,C   0)                  1.7717         0.344915   
      4. B(H   4,C   0)                  1.0930         0.356095   
      5. A(Cl  1,C   0,Cl  3)          110.5792         0.385028   
      6. A(Cl  2,C   0,Cl  3)          110.5804         0.385048   
      7. A(Cl  1,C   0,H   4)          108.3365         0.332822   
      8. A(Cl  2,C   0,H   4)          108.3418         0.332838   
      9. A(Cl  3,C   0,H   4)          108.3361         0.332819   
     10. A(Cl  1,C   0,Cl  2)          110.5808         0.385051   
    -----------------------------------------------------------------

Number of atoms                         .... 5
Number of degrees of freedom            .... 10

         *************************************************************
         *                GEOMETRY OPTIMIZATION CYCLE   1            *
         *************************************************************
---------------------------------
CARTESIAN COORDINATES (ANGSTROEM)
---------------------------------
  C     -5.449597    2.819765   -0.055988
  Cl    -6.921212    3.790019    0.122710
  Cl    -4.241217    3.691806   -1.014135
  Cl    -4.792074    2.387499    1.531409
  H     -5.707399    1.898077   -0.583980

----------------------------
CARTESIAN COORDINATES (A.U.)
----------------------------
  NO LB      ZA    FRAG     MASS         X           Y           Z
   0 C     6.0000    0    12.011  -10.298246    5.328584   -0.105802
   1 Cl   17.0000    0    35.453  -13.079195    7.162098    0.231888
   2 Cl   17.0000    0    35.453   -8.014739    6.976502   -1.916437
   3 Cl   17.0000    0    35.453   -9.055707    4.511719    2.893944
   4 H     1.0000    0     1.008  -10.785421    3.586846   -1.103562

--------------------------------
INTERNAL COORDINATES (ANGSTROEM)
--------------------------------
 C      0   0   0     0.000000000000     0.00000000     0.00000000
 Cl     1   0   0     1.771715696139     0.00000000     0.00000000
 Cl     1   2   0     1.771632976576   110.58082638     0.00000000
 Cl     1   2   3     1.771727864514   110.57920697   122.82425618
 H      1   2   3     1.093044460492   108.33648863   241.40820802

---------------------------
INTERNAL COORDINATES (A.U.)
---------------------------
 C      0   0   0     0.000000000000     0.00000000     0.00000000
 Cl     1   0   0     3.348057452872     0.00000000     0.00000000
 Cl     1   2   0     3.347901135552   110.58082638     0.00000000
 Cl     1   2   3     3.348080447768   110.57920697   122.82425618
 H      1   2   3     2.065554682529   108.33648863   241.40820802

---------------------
BASIS SET INFORMATION
---------------------
There are 3 groups of distinct atoms

 Group   1 Type C   : 7s4p1d contracted to 3s2p1d pattern {511/31/1}
 Group   2 Type Cl  : 10s7p1d contracted to 4s3p1d pattern {5311/511/1}
 Group   3 Type H   : 4s1p contracted to 2s1p pattern {31/1}

Atom   0C    basis set group =>   1
Atom   1Cl   basis set group =>   2
Atom   2Cl   basis set group =>   2
Atom   3Cl   basis set group =>   2
Atom   4H    basis set group =>   3
---------------------------------
AUXILIARY/J BASIS SET INFORMATION
---------------------------------
There are 3 groups of distinct atoms

 Group   1 Type C   : 12s5p4d2f1g contracted to 6s4p3d1f1g pattern {711111/2111/211/2/1}
 Group   2 Type Cl  : 14s5p5d2f1g contracted to 8s4p3d1f1g pattern {71111111/2111/311/2/1}
 Group   3 Type H   : 5s2p1d contracted to 3s1p1d pattern {311/2/1}

Atom   0C    basis set group =>   1
Atom   1Cl   basis set group =>   2
Atom   2Cl   basis set group =>   2
Atom   3Cl   basis set group =>   2
Atom   4H    basis set group =>   3
------------------------------------------------------------------------------
                           ORCA GTO INTEGRAL CALCULATION
                           -- RI-GTO INTEGRALS CHOSEN --
------------------------------------------------------------------------------
------------------------------------------------------------------------------
                   ___                                                        
                  /   \      - P O W E R E D   B Y -                         
                 /     \                                                     
                 |  |  |   _    _      __       _____    __    __             
                 |  |  |  | |  | |    /  \     |  _  \  |  |  /  |          
                  \  \/   | |  | |   /    \    | | | |  |  | /  /          
                 / \  \   | |__| |  /  /\  \   | |_| |  |  |/  /          
                |  |  |   |  __  | /  /__\  \  |    /   |      \           
                |  |  |   | |  | | |   __   |  |    \   |  |\   \          
                \     /   | |  | | |  |  |  |  | |\  \  |  | \   \       
                 \___/    |_|  |_| |__|  |__|  |_| \__\ |__|  \__/        
                                                                              
                      - O R C A' S   B I G   F R I E N D -                    
                                      &                                       
                       - I N T E G R A L  F E E D E R -                       
                                                                              
 v1 FN, 2020, v2 2021                                                         
------------------------------------------------------------------------------


Reading SHARK input file CHCl3.SHARKINP.tmp ... ok
----------------------
SHARK INTEGRAL PACKAGE
----------------------

Number of atoms                             ...      5
Number of basis functions                   ...     73
Number of shells                            ...     33
Maximum angular momentum                    ...      2
Integral batch strategy                     ... SHARK/LIBINT Hybrid
RI-J (if used) integral strategy            ... SPLIT-RIJ (Revised 2003 algorithm where possible)
Printlevel                                  ...      1
Contraction scheme used                     ... SEGMENTED contraction
Coulomb Range Separation                    ... NOT USED
Exchange Range Separation                   ... NOT USED
Finite Nucleus Model                        ... NOT USED
Auxiliary Coulomb fitting basis             ... AVAILABLE
   # of basis functions in Aux-J            ...    213
   # of shells in Aux-J                     ...     71
   Maximum angular momentum in Aux-J        ...      4
Auxiliary J/K fitting basis                 ... NOT available
Auxiliary Correlation fitting basis         ... NOT available
Auxiliary 'external' fitting basis          ... NOT available
Integral threshold                          ...     2.500000e-11
Primitive cut-off                           ...     2.500000e-12
Primitive pair pre-selection threshold      ...     2.500000e-12

Calculating pre-screening integrals         ... done (  0.0 sec) Dimension = 33
Organizing shell pair data                  ... done (  0.0 sec)
Shell pair information
Total number of shell pairs                 ...       561
Shell pairs after pre-screening             ...       531
Total number of primitive shell pairs       ...      2641
Primitive shell pairs kept                  ...      1861
          la=0 lb=0:    138 shell pairs
          la=1 lb=0:    192 shell pairs
          la=1 lb=1:     75 shell pairs
          la=2 lb=0:     68 shell pairs
          la=2 lb=1:     48 shell pairs
          la=2 lb=2:     10 shell pairs

Calculating one electron integrals          ... done (  0.0 sec)
Calculating RI/J V-Matrix + Cholesky decomp.... done (  0.0 sec)
Calculating Nuclear repulsion               ... done (  0.0 sec) ENN=    263.265068471557 Eh

SHARK setup successfully completed in   0.1 seconds

Maximum memory used throughout the entire GTOINT-calculation: 9.3 MB
-------------------------------------------------------------------------------
                                 ORCA SCF
-------------------------------------------------------------------------------

------------
SCF SETTINGS
------------
Hamiltonian:
 Density Functional     Method          .... DFT(GTOs)
 Exchange Functional    Exchange        .... B88
   X-Alpha parameter    XAlpha          ....  0.666667
   Becke's b parameter  XBeta           ....  0.004200
 Correlation Functional Correlation     .... LYP
 LDA part of GGA corr.  LDAOpt          .... VWN-5
 Gradients option       PostSCFGGA      .... off
 Hybrid DFT is turned on
   Fraction HF Exchange ScalHFX         ....  0.200000
   Scaling of DF-GGA-X  ScalDFX         ....  0.720000
   Scaling of DF-GGA-C  ScalDFC         ....  0.810000
   Scaling of DF-LDA-C  ScalLDAC        ....  1.000000
   Perturbative correction              ....  0.000000
   Density functional embedding theory  .... OFF
   NL short-range parameter             ....  4.800000
 RI-approximation to the Coulomb term is turned on
   Number of AuxJ basis functions       .... 213
   RIJ-COSX (HFX calculated with COS-X)).... on


General Settings:
 Integral files         IntName         .... CHCl3
 Hartree-Fock type      HFTyp           .... RHF
 Total Charge           Charge          ....    0
 Multiplicity           Mult            ....    1
 Number of Electrons    NEL             ....   58
 Basis Dimension        Dim             ....   73
 Nuclear Repulsion      ENuc            ....    263.2650684716 Eh

Convergence Acceleration:
 DIIS                   CNVDIIS         .... on
   Start iteration      DIISMaxIt       ....    12
   Startup error        DIISStart       ....  0.200000
   # of expansion vecs  DIISMaxEq       ....     5
   Bias factor          DIISBfac        ....   1.050
   Max. coefficient     DIISMaxC        ....  10.000
 Trust-Rad. Augm. Hess. CNVTRAH         .... auto
   Auto Start mean grad. ratio tolernc. ....  1.125000
   Auto Start start iteration           ....    20
   Auto Start num. interpolation iter.  ....    10
   Max. Number of Micro iterations      ....    16
   Max. Number of Macro iterations      .... Maxiter - #DIIS iter
   Number of Davidson start vectors     ....     2
   Converg. threshold I  (grad. norm)   ....   1.000e-05
   Converg. threshold II (energy diff.) ....   1.000e-08
   Grad. Scal. Fac. for Micro threshold ....   0.100
   Minimum threshold for Micro iter.    ....   0.010
   NR start threshold (gradient norm)   ....   0.001
   Initial trust radius                 ....   0.400
   Minimum AH scaling param. (alpha)    ....   1.000
   Maximum AH scaling param. (alpha)    .... 1000.000
   Orbital update algorithm             .... Taylor
   White noise on init. David. guess    .... on
   Maximum white noise                  ....   0.010
   Quad. conv. algorithm                .... NR
 SOSCF                  CNVSOSCF        .... on
   Start iteration      SOSCFMaxIt      ....   150
   Startup grad/error   SOSCFStart      ....  0.003300
 Level Shifting         CNVShift        .... on
   Level shift para.    LevelShift      ....    0.2500
   Turn off err/grad.   ShiftErr        ....    0.0010
 Zerner damping         CNVZerner       .... off
 Static damping         CNVDamp         .... on
   Fraction old density DampFac         ....    0.7000
   Max. Damping (<1)    DampMax         ....    0.9800
   Min. Damping (>=0)   DampMin         ....    0.0000
   Turn off err/grad.   DampErr         ....    0.1000
 Fernandez-Rico         CNVRico         .... off

SCF Procedure:
 Maximum # iterations   MaxIter         ....   125
 SCF integral mode      SCFMode         .... Direct
   Integral package                     .... SHARK and LIBINT hybrid scheme
 Reset frequency        DirectResetFreq ....    20
 Integral Threshold     Thresh          ....  2.500e-11 Eh
 Primitive CutOff       TCut            ....  2.500e-12 Eh

Convergence Tolerance:
 Convergence Check Mode ConvCheckMode   .... Total+1el-Energy
 Convergence forced     ConvForced      .... 0
 Energy Change          TolE            ....  1.000e-08 Eh
 1-El. energy change                    ....  1.000e-05 Eh
 Orbital Gradient       TolG            ....  1.000e-05
 Orbital Rotation angle TolX            ....  1.000e-05
 DIIS Error             TolErr          ....  5.000e-07


Diagonalization of the overlap matrix:
Smallest eigenvalue                        ... 6.545e-03
Time for diagonalization                   ...    0.002 sec
Threshold for overlap eigenvalues          ... 1.000e-08
Number of eigenvalues below threshold      ... 0
Time for construction of square roots      ...    0.000 sec
Total time needed                          ...    0.003 sec

Time for model grid setup =    0.032 sec

------------------------------
INITIAL GUESS: MODEL POTENTIAL
------------------------------
Loading Hartree-Fock densities                     ... done
Calculating cut-offs                               ... done
Initializing the effective Hamiltonian             ... done
Setting up the integral package (SHARK)            ... done
Starting the Coulomb interaction                   ... done (   0.0 sec)
Reading the grid                                   ... done
Mapping shells                                     ... done
Starting the XC term evaluation                    ... done (   0.0 sec)
  promolecular density results
     # of electrons  =     57.999666093
     EX              =    -88.013462206
     EC              =     -2.361865290
     EX+EC           =    -90.375327495
Transforming the Hamiltonian                       ... done (   0.0 sec)
Diagonalizing the Hamiltonian                      ... done (   0.0 sec)
Back transforming the eigenvectors                 ... done (   0.0 sec)
Now organizing SCF variables                       ... done
                      ------------------
                      INITIAL GUESS DONE (   0.1 sec)
                      ------------------
-------------------
DFT GRID GENERATION
-------------------

General Integration Accuracy     IntAcc      ... 4.388
Radial Grid Type                 RadialGrid  ... OptM3 with GC (2021)
Angular Grid (max. ang.)         AngularGrid ... 4 (Lebedev-302)
Angular grid pruning method      GridPruning ... 4 (adaptive)
Weight generation scheme         WeightScheme... Becke
Basis function cutoff            BFCut       ... 1.0000e-11
Integration weight cutoff        WCut        ... 1.0000e-14
Angular grids for H and He will be reduced by one unit
Partially contracted basis set               ... off
Rotationally invariant grid construction     ... off

Total number of grid points                  ...    31423
Total number of batches                      ...      493
Average number of points per batch           ...       63
Average number of grid points per atom       ...     6285
Time for grid setup =    0.162 sec

--------------------
COSX GRID GENERATION
--------------------

GRIDX 1
-------
General Integration Accuracy     IntAcc      ... 3.816
Radial Grid Type                 RadialGrid  ... OptM3 with GC (2021)
Angular Grid (max. ang.)         AngularGrid ... 1 (Lebedev-50)
Angular grid pruning method      GridPruning ... 4 (adaptive)
Weight generation scheme         WeightScheme... Becke
Basis function cutoff            BFCut       ... 1.0000e-11
Integration weight cutoff        WCut        ... 1.0000e-14
Angular grids for H and He will be reduced by one unit
Partially contracted basis set               ... on
Rotationally invariant grid construction     ... off

Total number of grid points                  ...     3727
Total number of batches                      ...       61
Average number of points per batch           ...       61
Average number of grid points per atom       ...      745
UseSFitting                                  ... on

GRIDX 2
-------
General Integration Accuracy     IntAcc      ... 4.020
Radial Grid Type                 RadialGrid  ... OptM3 with GC (2021)
Angular Grid (max. ang.)         AngularGrid ... 2 (Lebedev-110)
Angular grid pruning method      GridPruning ... 4 (adaptive)
Weight generation scheme         WeightScheme... Becke
Basis function cutoff            BFCut       ... 1.0000e-11
Integration weight cutoff        WCut        ... 1.0000e-14
Angular grids for H and He will be reduced by one unit
Partially contracted basis set               ... on
Rotationally invariant grid construction     ... off

Total number of grid points                  ...     8587
Total number of batches                      ...      138
Average number of points per batch           ...       62
Average number of grid points per atom       ...     1717
UseSFitting                                  ... on

GRIDX 3
-------
General Integration Accuracy     IntAcc      ... 4.338
Radial Grid Type                 RadialGrid  ... OptM3 with GC (2021)
Angular Grid (max. ang.)         AngularGrid ... 3 (Lebedev-194)
Angular grid pruning method      GridPruning ... 4 (adaptive)
Weight generation scheme         WeightScheme... Becke
Basis function cutoff            BFCut       ... 1.0000e-11
Integration weight cutoff        WCut        ... 1.0000e-14
Angular grids for H and He will be reduced by one unit
Partially contracted basis set               ... on
Rotationally invariant grid construction     ... off

Total number of grid points                  ...    20886
Total number of batches                      ...      330
Average number of points per batch           ...       63
Average number of grid points per atom       ...     4177
UseSFitting                                  ... on

Time for X-Grid setup             =    0.155 sec

--------------
SCF ITERATIONS
--------------
ITER       Energy         Delta-E        Max-DP      RMS-DP      [F,P]     Damp
               ***  Starting incremental Fock matrix formation  ***
  0  -1418.6259116633   0.000000000000 0.02918353  0.00144889  0.0427530 0.7000
  1  -1418.6320634167  -0.006151753461 0.02007600  0.00098374  0.0245953 0.7000
                               ***Turning on DIIS***
  2  -1418.6347219004  -0.002658483654 0.03631535  0.00170642  0.0134307 0.0000
  3  -1418.6397434393  -0.005021538889 0.01306991  0.00081293  0.0098823 0.0000
  4  -1418.6401968385  -0.000453399253 0.00686852  0.00018353  0.0061771 0.0000
                      *** Initiating the SOSCF procedure ***
                           *** Shutting down DIIS ***
                      *** Re-Reading the Fockian *** 
                      *** Removing any level shift *** 
ITER      Energy       Delta-E        Grad      Rot      Max-DP    RMS-DP
  5  -1418.64031989  -0.0001230562  0.000413  0.000413  0.001585  0.000075
               *** Restarting incremental Fock matrix formation ***
  6  -1418.64032779  -0.0000078985  0.000307  0.000613  0.001068  0.000045
  7  -1418.64032615   0.0000016382  0.000570  0.000400  0.000799  0.000029
  8  -1418.64032854  -0.0000023840  0.000004  0.000013  0.000014  0.000001
  9  -1418.64032854   0.0000000016  0.000003  0.000003  0.000005  0.000000
                 **** Energy Check signals convergence ****
              ***Rediagonalizing the Fockian in SOSCF/NRSCF***

               *****************************************************
               *                     SUCCESS                       *
               *           SCF CONVERGED AFTER  10 CYCLES          *
               *****************************************************

Old exchange energy                            =    -17.631869991 Eh
New exchange energy                            =    -17.631878309 Eh
Exchange energy change after final integration =     -0.000008318 Eh
Total energy after final integration           =  -1418.640336857 Eh
Final COS-X integration done in                =     0.800 sec

----------------
TOTAL SCF ENERGY
----------------

Total Energy       :        -1418.64033686 Eh          -38603.16611 eV

Components:
Nuclear Repulsion  :          263.26506847 Eh            7163.80671 eV
Electronic Energy  :        -1681.90540533 Eh          -45766.97283 eV
One Electron Energy:        -2481.98477488 Eh          -67538.23930 eV
Two Electron Energy:          800.07936955 Eh           21771.26648 eV
Max COSX asymmetry :            0.00000162 Eh               0.00004 eV

Virial components:
Potential Energy   :        -2834.40089311 Eh          -77127.96941 eV
Kinetic Energy     :         1415.76055625 Eh           38524.80330 eV
Virial Ratio       :            2.00203409


DFT components:
N(Alpha)           :       28.999995431356 electrons
N(Beta)            :       28.999995431356 electrons
N(Total)           :       57.999990862712 electrons
E(X)               :      -69.973995311063 Eh       
E(C)               :       -2.763053539225 Eh       
E(XC)              :      -72.737048850289 Eh       
DFET-embed. en.    :        0.000000000000 Eh       

---------------
SCF CONVERGENCE
---------------

  Last Energy change         ...   -1.2817e-09  Tolerance :   1.0000e-08
  Last MAX-Density change    ...    3.1086e-15  Tolerance :   1.0000e-07
  Last RMS-Density change    ...    1.2402e-16  Tolerance :   5.0000e-09
  Last Orbital Gradient      ...    2.8267e-07  Tolerance :   1.0000e-05
  Last Orbital Rotation      ...    3.3634e-07  Tolerance :   1.0000e-05

             **** THE GBW FILE WAS UPDATED (CHCl3.gbw) ****
             **** DENSITY CHCl3.scfp WAS UPDATED ****
             **** ENERGY FILE WAS UPDATED (CHCl3.en.tmp) ****
             **** THE GBW FILE WAS UPDATED (CHCl3.gbw) ****
             **** DENSITY CHCl3.scfp WAS UPDATED ****
----------------
ORBITAL ENERGIES
----------------

  NO   OCC          E(Eh)            E(eV) 
   0   2.0000    -101.517089     -2762.4204 
   1   2.0000    -101.517083     -2762.4203 
   2   2.0000    -101.517030     -2762.4188 
   3   2.0000     -10.350640      -281.6552 
   4   2.0000      -9.472594      -257.7624 
   5   2.0000      -9.472585      -257.7621 
   6   2.0000      -9.472541      -257.7610 
   7   2.0000      -7.242107      -197.0677 
   8   2.0000      -7.242097      -197.0675 
   9   2.0000      -7.242075      -197.0669 
  10   2.0000      -7.231319      -196.7742 
  11   2.0000      -7.231301      -196.7737 
  12   2.0000      -7.231294      -196.7735 
  13   2.0000      -7.231167      -196.7701 
  14   2.0000      -7.231151      -196.7696 
  15   2.0000      -7.231146      -196.7695 
  16   2.0000      -0.939429       -25.5632 
  17   2.0000      -0.834726       -22.7140 
  18   2.0000      -0.834711       -22.7137 
  19   2.0000      -0.641279       -17.4501 
  20   2.0000      -0.506070       -13.7709 
  21   2.0000      -0.471885       -12.8407 
  22   2.0000      -0.471878       -12.8405 
  23   2.0000      -0.347775        -9.4635 
  24   2.0000      -0.347770        -9.4633 
  25   2.0000      -0.318433        -8.6650 
  26   2.0000      -0.318427        -8.6648 
  27   2.0000      -0.317526        -8.6403 
  28   2.0000      -0.300728        -8.1832 
  29   0.0000      -0.009121        -0.2482 
  30   0.0000       0.029502         0.8028 
  31   0.0000       0.029523         0.8034 
  32   0.0000       0.066648         1.8136 
  33   0.0000       0.394618        10.7381 
  34   0.0000       0.396258        10.7827 
  35   0.0000       0.396296        10.7838 
  36   0.0000       0.410758        11.1773 
  37   0.0000       0.539105        14.6698 
  38   0.0000       0.539118        14.6701 
  39   0.0000       0.588159        16.0046 
  40   0.0000       0.660846        17.9825 
  41   0.0000       0.660849        17.9826 
  42   0.0000       0.727642        19.8001 
  43   0.0000       0.734161        19.9775 
  44   0.0000       0.734168        19.9777 
  45   0.0000       0.741889        20.1878 
  46   0.0000       0.758115        20.6294 
  47   0.0000       0.758121        20.6295 
  48   0.0000       0.766195        20.8492 
  49   0.0000       0.781518        21.2662 
  50   0.0000       0.781522        21.2663 
  51   0.0000       0.781768        21.2730 
  52   0.0000       0.794237        21.6123 
  53   0.0000       0.811498        22.0820 
  54   0.0000       0.811506        22.0822 
  55   0.0000       0.832855        22.6631 
  56   0.0000       0.851085        23.1592 
  57   0.0000       0.851092        23.1594 
  58   0.0000       1.030533        28.0422 
  59   0.0000       1.033965        28.1356 
  60   0.0000       1.033973        28.1358 
  61   0.0000       1.215556        33.0770 
  62   0.0000       1.265292        34.4303 
  63   0.0000       1.265321        34.4311 
  64   0.0000       1.356441        36.9106 
  65   0.0000       1.546633        42.0860 
  66   0.0000       1.546650        42.0865 
  67   0.0000       1.891951        51.4826 
  68   0.0000       2.050519        55.7975 
  69   0.0000       2.050521        55.7975 
  70   0.0000       2.144005        58.3413 
  71   0.0000       2.144051        58.3426 
  72   0.0000       2.772924        75.4551 

                    ********************************
                    * MULLIKEN POPULATION ANALYSIS *
                    ********************************

-----------------------
MULLIKEN ATOMIC CHARGES
-----------------------
   0 C :    0.080111
   1 Cl:   -0.067714
   2 Cl:   -0.067641
   3 Cl:   -0.067706
   4 H :    0.122951
Sum of atomic charges:    0.0000000

--------------------------------
MULLIKEN REDUCED ORBITAL CHARGES
--------------------------------
  0 C s       :     3.116692  s :     3.116692
      pz      :     0.886463  p :     2.732842
      px      :     0.842842
      py      :     1.003536
      dz2     :     0.014125  d :     0.070356
      dxz     :     0.015795
      dyz     :     0.013375
      dx2y2   :     0.011593
      dxy     :     0.015467
  1 Cls       :     5.955191  s :     5.955191
      pz      :     3.930528  p :    11.078498
      px      :     3.420985
      py      :     3.726986
      dz2     :     0.005487  d :     0.034025
      dxz     :     0.004466
      dyz     :     0.002160
      dx2y2   :     0.007357
      dxy     :     0.014555
  2 Cls       :     5.955163  s :     5.955163
      pz      :     3.718927  p :    11.078446
      px      :     3.590070
      py      :     3.769449
      dz2     :     0.003906  d :     0.034032
      dxz     :     0.010318
      dyz     :     0.006069
      dx2y2   :     0.004494
      dxy     :     0.009246
  3 Cls       :     5.955180  s :     5.955180
      pz      :     3.344570  p :    11.078503
      px      :     3.832777
      py      :     3.901155
      dz2     :     0.013451  d :     0.034024
      dxz     :     0.010181
      dyz     :     0.007307
      dx2y2   :     0.001105
      dxy     :     0.001981
  4 H s       :     0.856037  s :     0.856037
      pz      :     0.005726  p :     0.021012
      px      :     0.003452
      py      :     0.011834


                     *******************************
                     * LOEWDIN POPULATION ANALYSIS *
                     *******************************

----------------------
LOEWDIN ATOMIC CHARGES
----------------------
   0 C :   -0.255778
   1 Cl:    0.078872
   2 Cl:    0.078943
   3 Cl:    0.078863
   4 H :    0.019100

-------------------------------
LOEWDIN REDUCED ORBITAL CHARGES
-------------------------------
  0 C s       :     3.044666  s :     3.044666
      pz      :     1.006534  p :     3.065384
      px      :     0.979393
      py      :     1.079456
      dz2     :     0.028514  d :     0.145728
      dxz     :     0.032046
      dyz     :     0.028962
      dx2y2   :     0.023722
      dxy     :     0.032485
  1 Cls       :     5.794154  s :     5.794154
      pz      :     3.917750  p :    11.087004
      px      :     3.445290
      py      :     3.723965
      dz2     :     0.006781  d :     0.039969
      dxz     :     0.004811
      dyz     :     0.002291
      dx2y2   :     0.008377
      dxy     :     0.017709
  2 Cls       :     5.794116  s :     5.794116
      pz      :     3.723244  p :    11.086961
      px      :     3.599781
      py      :     3.763936
      dz2     :     0.004072  d :     0.039980
      dxz     :     0.012764
      dyz     :     0.007324
      dx2y2   :     0.005002
      dxy     :     0.010819
  3 Cls       :     5.794159  s :     5.794159
      pz      :     3.368466  p :    11.087010
      px      :     3.826548
      py      :     3.891996
      dz2     :     0.016039  d :     0.039968
      dxz     :     0.012014
      dyz     :     0.008466
      dx2y2   :     0.001192
      dxy     :     0.002257
  4 H s       :     0.904289  s :     0.904289
      pz      :     0.021242  p :     0.076611
      px      :     0.013610
      py      :     0.041759


                      *****************************
                      * MAYER POPULATION ANALYSIS *
                      *****************************

  NA   - Mulliken gross atomic population
  ZA   - Total nuclear charge
  QA   - Mulliken gross atomic charge
  VA   - Mayer's total valence
  BVA  - Mayer's bonded valence
  FA   - Mayer's free valence

  ATOM       NA         ZA         QA         VA         BVA        FA
  0 C      5.9199     6.0000     0.0801     4.0588     4.0588     0.0000
  1 Cl    17.0677    17.0000    -0.0677     1.1370     1.1370    -0.0000
  2 Cl    17.0676    17.0000    -0.0676     1.1370     1.1370     0.0000
  3 Cl    17.0677    17.0000    -0.0677     1.1370     1.1370    -0.0000
  4 H      0.8770     1.0000     0.1230     0.9685     0.9685    -0.0000

  Mayer bond orders larger than 0.100000
B(  0-C ,  1-Cl) :   1.0386 B(  0-C ,  2-Cl) :   1.0387 B(  0-C ,  3-Cl) :   1.0386 
B(  0-C ,  4-H ) :   0.9429 

-------
TIMINGS
-------

Total SCF time: 0 days 0 hours 0 min 5 sec 

Total time                  ....       5.626 sec
Sum of individual times     ....       5.539 sec  ( 98.4%)

Fock matrix formation       ....       5.140 sec  ( 91.4%)
  Split-RI-J                ....       0.388 sec  (  7.6% of F)
  Chain of spheres X        ....       3.461 sec  ( 67.3% of F)
  XC integration            ....       1.298 sec  ( 25.3% of F)
    Basis function eval.    ....       0.527 sec  ( 40.6% of XC)
    Density eval.           ....       0.208 sec  ( 16.0% of XC)
    XC-Functional eval.     ....       0.264 sec  ( 20.3% of XC)
    XC-Potential eval.      ....       0.236 sec  ( 18.2% of XC)
Diagonalization             ....       0.004 sec  (  0.1%)
Density matrix formation    ....       0.001 sec  (  0.0%)
Population analysis         ....       0.001 sec  (  0.0%)
Initial guess               ....       0.042 sec  (  0.7%)
Orbital Transformation      ....       0.000 sec  (  0.0%)
Orbital Orthonormalization  ....       0.000 sec  (  0.0%)
DIIS solution               ....       0.001 sec  (  0.0%)
SOSCF solution              ....       0.002 sec  (  0.0%)
Grid generation             ....       0.349 sec  (  6.2%)

Maximum memory used throughout the entire SCF-calculation: 50.4 MB

-------------------------   --------------------
FINAL SINGLE POINT ENERGY     -1418.640336856628
-------------------------   --------------------

------------------------------------------------------------------------------
                         ORCA SCF GRADIENT CALCULATION
------------------------------------------------------------------------------

 ... reading COSX grid (gridx3)
Gradient of the Kohn-Sham DFT energy:
Kohn-Sham wavefunction type      ... RKS
Hartree-Fock exchange scaling    ...    0.200
Number of operators              ...    1
Number of atoms                  ...    5
Basis set dimensions             ...   73
Integral neglect threshold       ... 2.5e-11
Integral primitive cutoff        ... 2.5e-12
SHARK Integral package           ... ON

Nuc. rep. gradient       (SHARK) ... done (  0.0 sec)
HCore & Overlap gradient (SHARK) ... done (  0.0 sec)
RI-J gradient            (SHARK) ... done (  0.2 sec)
COSX-gradient                    ... done (  0.9 sec)
Exchange-correlation gradient    ... done

------------------
CARTESIAN GRADIENT
------------------

   1   C   :   -0.000505359   -0.001649923   -0.000955353
   2   Cl  :    0.006853917   -0.001785574    0.000475991
   3   Cl  :   -0.004576453   -0.001430502    0.005390136
   4   Cl  :   -0.002137993    0.004151676   -0.005379756
   5   H   :    0.000206061    0.000755484    0.000438876

Difference to translation invariance:
           :   -0.0001598275    0.0000411630   -0.0000301054

Difference to rotation invariance:
           :   -0.0004580232   -0.0003977121    0.0005046610

Norm of the cartesian gradient     ...    0.0125650384
RMS gradient                       ...    0.0032442790
MAX gradient                       ...    0.0068539165

-------
TIMINGS
-------

Total SCF gradient time            ...        1.702 sec

One electron gradient       ....       0.013 sec  (  0.8%)
RI-J Coulomb gradient       ....       0.160 sec  (  9.4%)
COSX gradient               ....       0.942 sec  ( 55.4%)
XC gradient                 ....       0.432 sec  ( 25.4%)

Maximum memory used throughout the entire SCFGRAD-calculation: 39.6 MB
------------------------------------------------------------------------------
                         ORCA GEOMETRY RELAXATION STEP
------------------------------------------------------------------------------

Reading the OPT-File                    .... done
Getting information on internals        .... done
Copying old internal coords+grads       .... done
Making the new internal coordinates     .... (new redundants).... done
Validating the new internal coordinates .... (new redundants).... done
Calculating the B-matrix                .... done
Calculating the G,G- and P matrices     .... done
Transforming gradient to internals      .... done
Projecting the internal gradient        .... done
Number of atoms                         ....   5
Number of internal coordinates          ....  10
Current Energy                          .... -1418.640336857 Eh
Current gradient norm                   ....     0.012565038 Eh/bohr
Maximum allowed component of the step   ....  0.300
Current trust radius                    ....  0.300
Evaluating the initial hessian          ....  (Almloef) done
Projecting the Hessian                  .... done
Forming the augmented Hessian           .... done
Diagonalizing the augmented Hessian     .... done
Last element of RFO vector              ....  0.998985482
Lowest eigenvalues of augmented Hessian:
 -0.000714221  0.332820332  0.332832421  0.344922137  0.344989312
Length of the computed step             ....  0.045079121
The final length of the internal step   ....  0.045079121
Converting the step to cartesian space:
 Initial RMS(Int)=    0.0142552698
Transforming coordinates:
 Iter   0:  RMS(Cart)=    0.0168790181 RMS(Int)=    0.0142821133
 Iter   1:  RMS(Cart)=    0.0001718315 RMS(Int)=    0.0001851148
 Iter   2:  RMS(Cart)=    0.0000031948 RMS(Int)=    0.0000040392
 Iter   3:  RMS(Cart)=    0.0000000408 RMS(Int)=    0.0000000540
done
Storing new coordinates                 .... done

                                .--------------------.
          ----------------------|Geometry convergence|-------------------------
          Item                value                   Tolerance       Converged
          ---------------------------------------------------------------------
          RMS gradient        0.0050110494            0.0001000000      NO
          MAX gradient        0.0067248595            0.0003000000      NO
          RMS step            0.0142552698            0.0020000000      NO
          MAX step            0.0194500942            0.0040000000      NO
          ........................................................
          Max(Bonds)      0.0103      Max(Angles)    0.72
          Max(Dihed)        0.00      Max(Improp)    0.00
          ---------------------------------------------------------------------

The optimization has not yet converged - more geometry cycles are needed


    ---------------------------------------------------------------------------
                         Redundant Internal Coordinates
                            (Angstroem and degrees)

        Definition                    Value    dE/dq     Step     New-Value
    ----------------------------------------------------------------------------
     1. B(Cl  1,C   0)                1.7717 -0.006652  0.0102    1.7819   
     2. B(Cl  2,C   0)                1.7716 -0.006725  0.0103    1.7819   
     3. B(Cl  3,C   0)                1.7717 -0.006610  0.0101    1.7818   
     4. B(H   4,C   0)                1.0930 -0.000901  0.0013    1.0944   
     5. A(Cl  1,C   0,Cl  3)          110.58 -0.004208    0.67    111.25   
     6. A(Cl  2,C   0,Cl  3)          110.58 -0.004331    0.69    111.27   
     7. A(Cl  1,C   0,H   4)          108.34  0.004534   -0.72    107.61   
     8. A(Cl  2,C   0,H   4)          108.34  0.004485   -0.72    107.63   
     9. A(Cl  3,C   0,H   4)          108.34  0.004523   -0.72    107.61   
    10. A(Cl  1,C   0,Cl  2)          110.58 -0.004420    0.71    111.29   
    ----------------------------------------------------------------------------

         *************************************************************
         *                GEOMETRY OPTIMIZATION CYCLE   2            *
         *************************************************************
---------------------------------
CARTESIAN COORDINATES (ANGSTROEM)
---------------------------------
  C     -5.446909    2.829277   -0.050640
  Cl    -6.938774    3.788889    0.118628
  Cl    -4.232009    3.689834   -1.029781
  Cl    -4.788705    2.372733    1.541000
  H     -5.705101    1.906433   -0.579191

----------------------------
CARTESIAN COORDINATES (A.U.)
----------------------------
  NO LB      ZA    FRAG     MASS         X           Y           Z
   0 C     6.0000    0    12.011  -10.293167    5.346559   -0.095695
   1 Cl   17.0000    0    35.453  -13.112383    7.159963    0.224174
   2 Cl   17.0000    0    35.453   -7.997338    6.972776   -1.946004
   3 Cl   17.0000    0    35.453   -9.049342    4.483815    2.912068
   4 H     1.0000    0     1.008  -10.781078    3.602637   -1.094512

--------------------------------
INTERNAL COORDINATES (ANGSTROEM)
--------------------------------
 C      0   0   0     0.000000000000     0.00000000     0.00000000
 Cl     1   0   0     1.781899837067     0.00000000     0.00000000
 Cl     1   2   0     1.781925523578   111.28067970     0.00000000
 Cl     1   2   3     1.781847787106   111.24760762   124.68731083
 H      1   2   3     1.094380942619   107.60638566   242.32692814

---------------------------
INTERNAL COORDINATES (A.U.)
---------------------------
 C      0   0   0     0.000000000000     0.00000000     0.00000000
 Cl     1   0   0     3.367302690135     0.00000000     0.00000000
 Cl     1   2   0     3.367351230607   111.28067970     0.00000000
 Cl     1   2   3     3.367204329965   111.24760762   124.68731083
 H      1   2   3     2.068080267732   107.60638566   242.32692814

------------------------------------------------------------------------------
                   ___                                                        
                  /   \      - P O W E R E D   B Y -                         
                 /     \                                                     
                 |  |  |   _    _      __       _____    __    __             
                 |  |  |  | |  | |    /  \     |  _  \  |  |  /  |          
                  \  \/   | |  | |   /    \    | | | |  |  | /  /          
                 / \  \   | |__| |  /  /\  \   | |_| |  |  |/  /          
                |  |  |   |  __  | /  /__\  \  |    /   |      \           
                |  |  |   | |  | | |   __   |  |    \   |  |\   \          
                \     /   | |  | | |  |  |  |  | |\  \  |  | \   \       
                 \___/    |_|  |_| |__|  |__|  |_| \__\ |__|  \__/        
                                                                              
                      - O R C A' S   B I G   F R I E N D -                    
                                      &                                       
                       - I N T E G R A L  F E E D E R -                       
                                                                              
 v1 FN, 2020, v2 2021                                                         
------------------------------------------------------------------------------


Reading SHARK input file CHCl3.SHARKINP.tmp ... ok
----------------------
SHARK INTEGRAL PACKAGE
----------------------

Number of atoms                             ...      5
Number of basis functions                   ...     73
Number of shells                            ...     33
Maximum angular momentum                    ...      2
Integral batch strategy                     ... SHARK/LIBINT Hybrid
RI-J (if used) integral strategy            ... SPLIT-RIJ (Revised 2003 algorithm where possible)
Printlevel                                  ...      1
Contraction scheme used                     ... SEGMENTED contraction
Coulomb Range Separation                    ... NOT USED
Exchange Range Separation                   ... NOT USED
Finite Nucleus Model                        ... NOT USED
Auxiliary Coulomb fitting basis             ... AVAILABLE
   # of basis functions in Aux-J            ...    213
   # of shells in Aux-J                     ...     71
   Maximum angular momentum in Aux-J        ...      4
Auxiliary J/K fitting basis                 ... NOT available
Auxiliary Correlation fitting basis         ... NOT available
Auxiliary 'external' fitting basis          ... NOT available
Integral threshold                          ...     2.500000e-11
Primitive cut-off                           ...     2.500000e-12
Primitive pair pre-selection threshold      ...     2.500000e-12

Calculating pre-screening integrals         ... done (  0.0 sec) Dimension = 33
Organizing shell pair data                  ... done (  0.0 sec)
Shell pair information
Total number of shell pairs                 ...       561
Shell pairs after pre-screening             ...       531
Total number of primitive shell pairs       ...      2641
Primitive shell pairs kept                  ...      1861
          la=0 lb=0:    138 shell pairs
          la=1 lb=0:    192 shell pairs
          la=1 lb=1:     75 shell pairs
          la=2 lb=0:     68 shell pairs
          la=2 lb=1:     48 shell pairs
          la=2 lb=2:     10 shell pairs

Calculating one electron integrals          ... done (  0.0 sec)
Calculating RI/J V-Matrix + Cholesky decomp.... done (  0.0 sec)
Calculating Nuclear repulsion               ... done (  0.0 sec) ENN=    261.193215852281 Eh

SHARK setup successfully completed in   0.1 seconds

Maximum memory used throughout the entire GTOINT-calculation: 9.3 MB

Diagonalization of the overlap matrix:
Smallest eigenvalue                        ... 6.892e-03
Time for diagonalization                   ...    0.002 sec
Threshold for overlap eigenvalues          ... 1.000e-08
Number of eigenvalues below threshold      ... 0
Time for construction of square roots      ...    0.000 sec
Total time needed                          ...    0.003 sec

-------------------
DFT GRID GENERATION
-------------------

General Integration Accuracy     IntAcc      ... 4.388
Radial Grid Type                 RadialGrid  ... OptM3 with GC (2021)
Angular Grid (max. ang.)         AngularGrid ... 4 (Lebedev-302)
Angular grid pruning method      GridPruning ... 4 (adaptive)
Weight generation scheme         WeightScheme... Becke
Basis function cutoff            BFCut       ... 1.0000e-11
Integration weight cutoff        WCut        ... 1.0000e-14
Angular grids for H and He will be reduced by one unit
Partially contracted basis set               ... off
Rotationally invariant grid construction     ... off

Total number of grid points                  ...    31426
Total number of batches                      ...      494
Average number of points per batch           ...       63
Average number of grid points per atom       ...     6285
Time for grid setup =    0.163 sec

--------------------
COSX GRID GENERATION
--------------------

GRIDX 1
-------
General Integration Accuracy     IntAcc      ... 3.816
Radial Grid Type                 RadialGrid  ... OptM3 with GC (2021)
Angular Grid (max. ang.)         AngularGrid ... 1 (Lebedev-50)
Angular grid pruning method      GridPruning ... 4 (adaptive)
Weight generation scheme         WeightScheme... Becke
Basis function cutoff            BFCut       ... 1.0000e-11
Integration weight cutoff        WCut        ... 1.0000e-14
Angular grids for H and He will be reduced by one unit
Partially contracted basis set               ... on
Rotationally invariant grid construction     ... off

Total number of grid points                  ...     3727
Total number of batches                      ...       61
Average number of points per batch           ...       61
Average number of grid points per atom       ...      745
UseSFitting                                  ... on

GRIDX 2
-------
General Integration Accuracy     IntAcc      ... 4.020
Radial Grid Type                 RadialGrid  ... OptM3 with GC (2021)
Angular Grid (max. ang.)         AngularGrid ... 2 (Lebedev-110)
Angular grid pruning method      GridPruning ... 4 (adaptive)
Weight generation scheme         WeightScheme... Becke
Basis function cutoff            BFCut       ... 1.0000e-11
Integration weight cutoff        WCut        ... 1.0000e-14
Angular grids for H and He will be reduced by one unit
Partially contracted basis set               ... on
Rotationally invariant grid construction     ... off

Total number of grid points                  ...     8586
Total number of batches                      ...      138
Average number of points per batch           ...       62
Average number of grid points per atom       ...     1717
UseSFitting                                  ... on

GRIDX 3
-------
General Integration Accuracy     IntAcc      ... 4.338
Radial Grid Type                 RadialGrid  ... OptM3 with GC (2021)
Angular Grid (max. ang.)         AngularGrid ... 3 (Lebedev-194)
Angular grid pruning method      GridPruning ... 4 (adaptive)
Weight generation scheme         WeightScheme... Becke
Basis function cutoff            BFCut       ... 1.0000e-11
Integration weight cutoff        WCut        ... 1.0000e-14
Angular grids for H and He will be reduced by one unit
Partially contracted basis set               ... on
Rotationally invariant grid construction     ... off

Total number of grid points                  ...    20887
Total number of batches                      ...      330
Average number of points per batch           ...       63
Average number of grid points per atom       ...     4177
UseSFitting                                  ... on

Time for X-Grid setup             =    0.155 sec

--------------
SCF ITERATIONS
--------------
ITER       Energy         Delta-E        Max-DP      RMS-DP      [F,P]     Damp
               ***  Starting incremental Fock matrix formation  ***
                      *** Initiating the SOSCF procedure ***
                      *** Re-Reading the Fockian *** 
                      *** Removing any level shift *** 
ITER      Energy       Delta-E        Grad      Rot      Max-DP    RMS-DP
  0  -1418.64048124 -1418.6404812363  0.003138  0.003138  0.004641  0.000385
               *** Restarting incremental Fock matrix formation ***
  1  -1418.64067430  -0.0001930602  0.001899  0.003897  0.008319  0.000329
  2  -1418.64065671   0.0000175884  0.003108  0.002270  0.004154  0.000172
  3  -1418.64072728  -0.0000705721  0.000126  0.000252  0.000465  0.000027
  4  -1418.64072756  -0.0000002791  0.000039  0.000039  0.000134  0.000007
  5  -1418.64072759  -0.0000000329  0.000008  0.000021  0.000030  0.000002
  6  -1418.64072759  -0.0000000009  0.000003  0.000005  0.000008  0.000000
                  ***Gradient check signals convergence***
              ***Rediagonalizing the Fockian in SOSCF/NRSCF***

               *****************************************************
               *                     SUCCESS                       *
               *           SCF CONVERGED AFTER   7 CYCLES          *
               *****************************************************

Old exchange energy                            =    -17.628917413 Eh
New exchange energy                            =    -17.628925293 Eh
Exchange energy change after final integration =     -0.000007881 Eh
Total energy after final integration           =  -1418.640735475 Eh
Final COS-X integration done in                =     0.797 sec
Total Energy       :        -1418.64073548 Eh          -38603.17696 eV
  Last Energy change         ...   -1.4381e-09  Tolerance :   1.0000e-08
  Last MAX-Density change    ...    2.3386e-15  Tolerance :   1.0000e-07
             **** THE GBW FILE WAS UPDATED (CHCl3.gbw) ****
             **** DENSITY CHCl3.scfp WAS UPDATED ****
             **** ENERGY FILE WAS UPDATED (CHCl3.en.tmp) ****
             **** THE GBW FILE WAS UPDATED (CHCl3.gbw) ****
             **** DENSITY CHCl3.scfp WAS UPDATED ****
Total SCF time: 0 days 0 hours 0 min 4 sec 

Maximum memory used throughout the entire SCF-calculation: 50.5 MB

-------------------------   --------------------
FINAL SINGLE POINT ENERGY     -1418.640735475361
-------------------------   --------------------

------------------------------------------------------------------------------
                         ORCA SCF GRADIENT CALCULATION
------------------------------------------------------------------------------

 ... reading COSX grid (gridx3)
Gradient of the Kohn-Sham DFT energy:
Kohn-Sham wavefunction type      ... RKS
Hartree-Fock exchange scaling    ...    0.200
Number of operators              ...    1
Number of atoms                  ...    5
Basis set dimensions             ...   73
Integral neglect threshold       ... 2.5e-11
Integral primitive cutoff        ... 2.5e-12
SHARK Integral package           ... ON

Nuc. rep. gradient       (SHARK) ... done (  0.0 sec)
HCore & Overlap gradient (SHARK) ... done (  0.0 sec)
RI-J gradient            (SHARK) ... done (  0.2 sec)
COSX-gradient                    ... done (  0.9 sec)
Exchange-correlation gradient    ... done

------------------
CARTESIAN GRADIENT
------------------

   1   C   :    0.000044756    0.000253495    0.000124647
   2   Cl  :    0.000893218   -0.000256443   -0.000003862
   3   Cl  :   -0.000644693   -0.000244691    0.000707650
   4   Cl  :   -0.000314025    0.000554389   -0.000723672
   5   H   :   -0.000096852   -0.000286985   -0.000138080

Difference to translation invariance:
           :   -0.0001175958    0.0000197652   -0.0000333168

Difference to rotation invariance:
           :   -0.0004921492   -0.0005036436    0.0004048909

Norm of the cartesian gradient     ...    0.0017210907
RMS gradient                       ...    0.0004443837
MAX gradient                       ...    0.0008932182

-------
TIMINGS
-------

Total SCF gradient time            ...        1.678 sec

One electron gradient       ....       0.013 sec  (  0.8%)
RI-J Coulomb gradient       ....       0.167 sec  (  9.9%)
COSX gradient               ....       0.933 sec  ( 55.6%)
XC gradient                 ....       0.430 sec  ( 25.7%)

Maximum memory used throughout the entire SCFGRAD-calculation: 39.6 MB
------------------------------------------------------------------------------
                         ORCA GEOMETRY RELAXATION STEP
------------------------------------------------------------------------------

Reading the OPT-File                    .... done
Getting information on internals        .... done
Copying old internal coords+grads       .... done
Making the new internal coordinates     .... (new redundants).... done
Validating the new internal coordinates .... (new redundants).... done
Calculating the B-matrix                .... done
Calculating the G,G- and P matrices     .... done
Transforming gradient to internals      .... done
Projecting the internal gradient        .... done
Number of atoms                         ....   5
Number of internal coordinates          ....  10
Current Energy                          .... -1418.640735475 Eh
Current gradient norm                   ....     0.001721091 Eh/bohr
Maximum allowed component of the step   ....  0.300
Current trust radius                    ....  0.300
Updating the Hessian (BFGS)             .... done
Forming the augmented Hessian           .... done
Diagonalizing the augmented Hessian     .... done
Last element of RFO vector              ....  0.999976933
Lowest eigenvalues of augmented Hessian:
 -0.000014022  0.303344018  0.332820523  0.332833917  0.344922864
Length of the computed step             ....  0.006792336
The final length of the internal step   ....  0.006792336
Converting the step to cartesian space:
 Initial RMS(Int)=    0.0021479251
Transforming coordinates:
 Iter   0:  RMS(Cart)=    0.0025775987 RMS(Int)=    0.0021485854
 Iter   1:  RMS(Cart)=    0.0000035586 RMS(Int)=    0.0000037853
 Iter   2:  RMS(Cart)=    0.0000000097 RMS(Int)=    0.0000000121
done
Storing new coordinates                 .... done

                                .--------------------.
          ----------------------|Geometry convergence|-------------------------
          Item                value                   Tolerance       Converged
          ---------------------------------------------------------------------
          Energy change      -0.0003986187            0.0000050000      NO
          RMS gradient        0.0006529401            0.0001000000      NO
          MAX gradient        0.0009347031            0.0003000000      NO
          RMS step            0.0021479251            0.0020000000      NO
          MAX step            0.0031194161            0.0040000000      YES
          ........................................................
          Max(Bonds)      0.0017      Max(Angles)    0.10
          Max(Dihed)        0.00      Max(Improp)    0.00
          ---------------------------------------------------------------------

The optimization has not yet converged - more geometry cycles are needed


    ---------------------------------------------------------------------------
                         Redundant Internal Coordinates
                            (Angstroem and degrees)

        Definition                    Value    dE/dq     Step     New-Value
    ----------------------------------------------------------------------------
     1. B(Cl  1,C   0)                1.7819 -0.000907  0.0016    1.7835   
     2. B(Cl  2,C   0)                1.7819 -0.000935  0.0017    1.7836   
     3. B(Cl  3,C   0)                1.7818 -0.000891  0.0016    1.7834   
     4. B(H   4,C   0)                1.0944  0.000326 -0.0006    1.0938   
     5. A(Cl  1,C   0,Cl  3)          111.25 -0.000459    0.09    111.33   
     6. A(Cl  2,C   0,Cl  3)          111.27 -0.000521    0.10    111.36   
     7. A(Cl  1,C   0,H   4)          107.61  0.000546   -0.10    107.51   
     8. A(Cl  2,C   0,H   4)          107.62  0.000551   -0.10    107.52   
     9. A(Cl  3,C   0,H   4)          107.61  0.000540   -0.10    107.51   
    10. A(Cl  1,C   0,Cl  2)          111.28 -0.000540    0.10    111.38   
    ----------------------------------------------------------------------------

         *************************************************************
         *                GEOMETRY OPTIMIZATION CYCLE   3            *
         *************************************************************
---------------------------------
CARTESIAN COORDINATES (ANGSTROEM)
---------------------------------
  C     -5.446564    2.830460   -0.049992
  Cl    -6.941402    3.788634    0.118066
  Cl    -4.230613    3.689473   -1.032186
  Cl    -4.788289    2.370514    1.542402
  H     -5.704631    1.908085   -0.578275

----------------------------
CARTESIAN COORDINATES (A.U.)
----------------------------
  NO LB      ZA    FRAG     MASS         X           Y           Z
   0 C     6.0000    0    12.011  -10.292515    5.348795   -0.094471
   1 Cl   17.0000    0    35.453  -13.117348    7.159480    0.223113
   2 Cl   17.0000    0    35.453   -7.994700    6.972093   -1.950548
   3 Cl   17.0000    0    35.453   -9.048555    4.479622    2.914718
   4 H     1.0000    0     1.008  -10.780190    3.605759   -1.092781

--------------------------------
INTERNAL COORDINATES (ANGSTROEM)
--------------------------------
 C      0   0   0     0.000000000000     0.00000000     0.00000000
 Cl     1   0   0     1.783501742118     0.00000000     0.00000000
 Cl     1   2   0     1.783576247528   111.37979459     0.00000000
 Cl     1   2   3     1.783422122124   111.33289459   124.95018935
 H      1   2   3     1.093826884849   107.50554979   242.45583976

---------------------------
INTERNAL COORDINATES (A.U.)
---------------------------
 C      0   0   0     0.000000000000     0.00000000     0.00000000
 Cl     1   0   0     3.370329851975     0.00000000     0.00000000
 Cl     1   2   0     3.370470646794   111.37979459     0.00000000
 Cl     1   2   3     3.370179391991   111.33289459   124.95018935
 H      1   2   3     2.067033250285   107.50554979   242.45583976

------------------------------------------------------------------------------
                   ___                                                        
                  /   \      - P O W E R E D   B Y -                         
                 /     \                                                     
                 |  |  |   _    _      __       _____    __    __             
                 |  |  |  | |  | |    /  \     |  _  \  |  |  /  |          
                  \  \/   | |  | |   /    \    | | | |  |  | /  /          
                 / \  \   | |__| |  /  /\  \   | |_| |  |  |/  /          
                |  |  |   |  __  | /  /__\  \  |    /   |      \           
                |  |  |   | |  | | |   __   |  |    \   |  |\   \          
                \     /   | |  | | |  |  |  |  | |\  \  |  | \   \       
                 \___/    |_|  |_| |__|  |__|  |_| \__\ |__|  \__/        
                                                                              
                      - O R C A' S   B I G   F R I E N D -                    
                                      &                                       
                       - I N T E G R A L  F E E D E R -                       
                                                                              
 v1 FN, 2020, v2 2021                                                         
------------------------------------------------------------------------------


Reading SHARK input file CHCl3.SHARKINP.tmp ... ok
----------------------
SHARK INTEGRAL PACKAGE
----------------------

Number of atoms                             ...      5
Number of basis functions                   ...     73
Number of shells                            ...     33
Maximum angular momentum                    ...      2
Integral batch strategy                     ... SHARK/LIBINT Hybrid
RI-J (if used) integral strategy            ... SPLIT-RIJ (Revised 2003 algorithm where possible)
Printlevel                                  ...      1
Contraction scheme used                     ... SEGMENTED contraction
Coulomb Range Separation                    ... NOT USED
Exchange Range Separation                   ... NOT USED
Finite Nucleus Model                        ... NOT USED
Auxiliary Coulomb fitting basis             ... AVAILABLE
   # of basis functions in Aux-J            ...    213
   # of shells in Aux-J                     ...     71
   Maximum angular momentum in Aux-J        ...      4
Auxiliary J/K fitting basis                 ... NOT available
Auxiliary Correlation fitting basis         ... NOT available
Auxiliary 'external' fitting basis          ... NOT available
Integral threshold                          ...     2.500000e-11
Primitive cut-off                           ...     2.500000e-12
Primitive pair pre-selection threshold      ...     2.500000e-12

Calculating pre-screening integrals         ... done (  0.0 sec) Dimension = 33
Organizing shell pair data                  ... done (  0.0 sec)
Shell pair information
Total number of shell pairs                 ...       561
Shell pairs after pre-screening             ...       531
Total number of primitive shell pairs       ...      2641
Primitive shell pairs kept                  ...      1861
          la=0 lb=0:    138 shell pairs
          la=1 lb=0:    192 shell pairs
          la=1 lb=1:     75 shell pairs
          la=2 lb=0:     68 shell pairs
          la=2 lb=1:     48 shell pairs
          la=2 lb=2:     10 shell pairs

Calculating one electron integrals          ... done (  0.0 sec)
Calculating RI/J V-Matrix + Cholesky decomp.... done (  0.0 sec)
Calculating Nuclear repulsion               ... done (  0.0 sec) ENN=    260.886851373697 Eh

SHARK setup successfully completed in   0.1 seconds

Maximum memory used throughout the entire GTOINT-calculation: 9.3 MB

Diagonalization of the overlap matrix:
Smallest eigenvalue                        ... 6.941e-03
Time for diagonalization                   ...    0.001 sec
Threshold for overlap eigenvalues          ... 1.000e-08
Number of eigenvalues below threshold      ... 0
Time for construction of square roots      ...    0.000 sec
Total time needed                          ...    0.001 sec

-------------------
DFT GRID GENERATION
-------------------

General Integration Accuracy     IntAcc      ... 4.388
Radial Grid Type                 RadialGrid  ... OptM3 with GC (2021)
Angular Grid (max. ang.)         AngularGrid ... 4 (Lebedev-302)
Angular grid pruning method      GridPruning ... 4 (adaptive)
Weight generation scheme         WeightScheme... Becke
Basis function cutoff            BFCut       ... 1.0000e-11
Integration weight cutoff        WCut        ... 1.0000e-14
Angular grids for H and He will be reduced by one unit
Partially contracted basis set               ... off
Rotationally invariant grid construction     ... off

Total number of grid points                  ...    31425
Total number of batches                      ...      494
Average number of points per batch           ...       63
Average number of grid points per atom       ...     6285
Time for grid setup =    0.164 sec

--------------------
COSX GRID GENERATION
--------------------

GRIDX 1
-------
General Integration Accuracy     IntAcc      ... 3.816
Radial Grid Type                 RadialGrid  ... OptM3 with GC (2021)
Angular Grid (max. ang.)         AngularGrid ... 1 (Lebedev-50)
Angular grid pruning method      GridPruning ... 4 (adaptive)
Weight generation scheme         WeightScheme... Becke
Basis function cutoff            BFCut       ... 1.0000e-11
Integration weight cutoff        WCut        ... 1.0000e-14
Angular grids for H and He will be reduced by one unit
Partially contracted basis set               ... on
Rotationally invariant grid construction     ... off

Total number of grid points                  ...     3727
Total number of batches                      ...       61
Average number of points per batch           ...       61
Average number of grid points per atom       ...      745
UseSFitting                                  ... on

GRIDX 2
-------
General Integration Accuracy     IntAcc      ... 4.020
Radial Grid Type                 RadialGrid  ... OptM3 with GC (2021)
Angular Grid (max. ang.)         AngularGrid ... 2 (Lebedev-110)
Angular grid pruning method      GridPruning ... 4 (adaptive)
Weight generation scheme         WeightScheme... Becke
Basis function cutoff            BFCut       ... 1.0000e-11
Integration weight cutoff        WCut        ... 1.0000e-14
Angular grids for H and He will be reduced by one unit
Partially contracted basis set               ... on
Rotationally invariant grid construction     ... off

Total number of grid points                  ...     8586
Total number of batches                      ...      138
Average number of points per batch           ...       62
Average number of grid points per atom       ...     1717
UseSFitting                                  ... on

GRIDX 3
-------
General Integration Accuracy     IntAcc      ... 4.338
Radial Grid Type                 RadialGrid  ... OptM3 with GC (2021)
Angular Grid (max. ang.)         AngularGrid ... 3 (Lebedev-194)
Angular grid pruning method      GridPruning ... 4 (adaptive)
Weight generation scheme         WeightScheme... Becke
Basis function cutoff            BFCut       ... 1.0000e-11
Integration weight cutoff        WCut        ... 1.0000e-14
Angular grids for H and He will be reduced by one unit
Partially contracted basis set               ... on
Rotationally invariant grid construction     ... off

Total number of grid points                  ...    20886
Total number of batches                      ...      330
Average number of points per batch           ...       63
Average number of grid points per atom       ...     4177
UseSFitting                                  ... on

Time for X-Grid setup             =    0.157 sec

--------------
SCF ITERATIONS
--------------
ITER       Energy         Delta-E        Max-DP      RMS-DP      [F,P]     Damp
               ***  Starting incremental Fock matrix formation  ***
                      *** Initiating the SOSCF procedure ***
                      *** Re-Reading the Fockian *** 
                      *** Removing any level shift *** 
ITER      Energy       Delta-E        Grad      Rot      Max-DP    RMS-DP
  0  -1418.64072953 -1418.6407295342  0.000445  0.000445  0.000677  0.000056
               *** Restarting incremental Fock matrix formation ***
  1  -1418.64073362  -0.0000040833  0.000266  0.000548  0.001166  0.000047
  2  -1418.64073330   0.0000003178  0.000438  0.000323  0.000587  0.000024
  3  -1418.64073470  -0.0000014018  0.000019  0.000044  0.000070  0.000004
  4  -1418.64073471  -0.0000000036  0.000006  0.000007  0.000022  0.000001
                  ***Gradient check signals convergence***
              ***Rediagonalizing the Fockian in SOSCF/NRSCF***

               *****************************************************
               *                     SUCCESS                       *
               *           SCF CONVERGED AFTER   5 CYCLES          *
               *****************************************************

Old exchange energy                            =    -17.628521863 Eh
New exchange energy                            =    -17.628529712 Eh
Exchange energy change after final integration =     -0.000007849 Eh
Total energy after final integration           =  -1418.640742556 Eh
Final COS-X integration done in                =     0.797 sec
Total Energy       :        -1418.64074256 Eh          -38603.17715 eV
  Last Energy change         ...   -2.4179e-09  Tolerance :   1.0000e-08
  Last MAX-Density change    ...    3.9968e-15  Tolerance :   1.0000e-07
             **** THE GBW FILE WAS UPDATED (CHCl3.gbw) ****
             **** DENSITY CHCl3.scfp WAS UPDATED ****
             **** ENERGY FILE WAS UPDATED (CHCl3.en.tmp) ****
             **** THE GBW FILE WAS UPDATED (CHCl3.gbw) ****
             **** DENSITY CHCl3.scfp WAS UPDATED ****
Total SCF time: 0 days 0 hours 0 min 4 sec 

Maximum memory used throughout the entire SCF-calculation: 50.5 MB

-------------------------   --------------------
FINAL SINGLE POINT ENERGY     -1418.640742556500
-------------------------   --------------------

------------------------------------------------------------------------------
                         ORCA SCF GRADIENT CALCULATION
------------------------------------------------------------------------------

 ... reading COSX grid (gridx3)
Gradient of the Kohn-Sham DFT energy:
Kohn-Sham wavefunction type      ... RKS
Hartree-Fock exchange scaling    ...    0.200
Number of operators              ...    1
Number of atoms                  ...    5
Basis set dimensions             ...   73
Integral neglect threshold       ... 2.5e-11
[...]

  NA   - Mulliken gross atomic population
  ZA   - Total nuclear charge
  QA   - Mulliken gross atomic charge
  VA   - Mayer's total valence
  BVA  - Mayer's bonded valence
  FA   - Mayer's free valence

  ATOM       NA         ZA         QA         VA         BVA        FA
  0 C      5.9170     6.0000     0.0830     4.0509     4.0509    -0.0000
  1 Cl    17.0690    17.0000    -0.0690     1.1388     1.1388    -0.0000
  2 Cl    17.0690    17.0000    -0.0690     1.1389     1.1389    -0.0000
  3 Cl    17.0690    17.0000    -0.0690     1.1388     1.1388     0.0000
  4 H      0.8760     1.0000     0.1240     0.9685     0.9685    -0.0000

  Mayer bond orders larger than 0.100000
B(  0-C ,  1-Cl) :   1.0355 B(  0-C ,  2-Cl) :   1.0355 B(  0-C ,  3-Cl) :   1.0355 
B(  0-C ,  4-H ) :   0.9444 

-------
TIMINGS
-------

Total SCF time: 0 days 0 hours 0 min 3 sec 

Total time                  ....       3.152 sec
Sum of individual times     ....       3.068 sec  ( 97.3%)

Fock matrix formation       ....       2.744 sec  ( 87.1%)
  Split-RI-J                ....       0.205 sec  (  7.5% of F)
  Chain of spheres X        ....       2.092 sec  ( 76.2% of F)
  XC integration            ....       0.462 sec  ( 16.8% of F)
    Basis function eval.    ....       0.189 sec  ( 41.0% of XC)
    Density eval.           ....       0.072 sec  ( 15.5% of XC)
    XC-Functional eval.     ....       0.095 sec  ( 20.5% of XC)
    XC-Potential eval.      ....       0.072 sec  ( 15.6% of XC)
Diagonalization             ....       0.001 sec  (  0.0%)
Density matrix formation    ....       0.000 sec  (  0.0%)
Population analysis         ....       0.002 sec  (  0.1%)
Initial guess               ....       0.001 sec  (  0.0%)
Orbital Transformation      ....       0.000 sec  (  0.0%)
Orbital Orthonormalization  ....       0.000 sec  (  0.0%)
DIIS solution               ....       0.000 sec  (  0.0%)
SOSCF solution              ....       0.001 sec  (  0.0%)
Grid generation             ....       0.319 sec  ( 10.1%)

Maximum memory used throughout the entire SCF-calculation: 50.5 MB

-------------------------   --------------------
FINAL SINGLE POINT ENERGY     -1418.640742563856
-------------------------   --------------------

                                *** OPTIMIZATION RUN DONE ***

                            ***************************************
                            *     ORCA property calculations      *
                            ***************************************

                                    ---------------------
                                    Active property flags
                                    ---------------------
   (+) Dipole Moment


------------------------------------------------------------------------------
                       ORCA ELECTRIC PROPERTIES CALCULATION
------------------------------------------------------------------------------

Dipole Moment Calculation                       ... on
Quadrupole Moment Calculation                   ... off
Polarizability Calculation                      ... off
GBWName                                         ... CHCl3.gbw
Electron density                                ... CHCl3.scfp
The origin for moment calculation is the CENTER OF MASS  = (-10.083718,  6.095790  0.333888)

-------------
DIPOLE MOMENT
-------------
                                X             Y             Z
Electronic contribution:      0.30494       1.09019       0.62468
Nuclear contribution   :     -0.41007      -1.46625      -0.84020
                        -----------------------------------------
Total Dipole Moment    :     -0.10513      -0.37607      -0.21553
                        -----------------------------------------
Magnitude (a.u.)       :      0.44602
Magnitude (Debye)      :      1.13368



--------------------
Rotational spectrum 
--------------------
 
Rotational constants in cm-1:     0.105764     0.105682     0.054783 
Rotational constants in MHz :  3170.739706  3168.267912  1642.338315 

 Dipole components along the rotational axes: 
x,y,z [a.u.] :     0.000095    -0.000030    -0.446017 
x,y,z [Debye]:     0.000241    -0.000077    -1.133685 

 

-------------------------------------------------------------------------------
                               ORCA SCF HESSIAN
-------------------------------------------------------------------------------

                   --------- SHARK INITIALIZATION DONE ---------

Hessian of the Kohn-Sham DFT energy:
Kohn-Sham wavefunction type                      ... RKS
Hartree-Fock exchange scaling                    ...    0.200
Number of operators                              ...    1
Number of atoms                                  ...    5
Basis set dimensions                             ...   73
Integral neglect threshold                       ... 2.5e-11
Integral primitive cutoff                        ... 2.5e-12

Setting up DFT Hessian calculations              ... 

HESS GRID
---------

General Integration Accuracy     IntAcc      ... 4.629
Radial Grid Type                 RadialGrid  ... OptM3 with GC (2021)
Angular Grid (max. ang.)         AngularGrid ... 5 (Lebedev-434)
Angular grid pruning method      GridPruning ... 4 (adaptive)
Weight generation scheme         WeightScheme... Becke
Basis function cutoff            BFCut       ... 1.0000e-11
Integration weight cutoff        WCut        ... 1.0000e-14
Angular grids for H and He will be reduced by one unit
Partially contracted basis set               ... off
Rotationally invariant grid construction     ... off

Total number of grid points                  ...    46171
Total number of batches                      ...      723
Average number of points per batch           ...       63
Average number of grid points per atom       ...     9234

Building densities                               ... done   (      0.0 sec)
Calculating rho(r) on the grid                   ... done   (      0.1 sec)
Building xc-kernel on the grid                   ... done   (      0.1 sec)
                                                     done   (      0.5 sec)

Nuclear repulsion Hessian  (SHARK)               ... done   (      0.0 sec)

----------------------------------------------
Forming right-hand sides of CP-SCF equations     ...
----------------------------------------------
One electron integral derivatives  (SHARK)       ... done   (      0.0 sec)
Transforming the overlap derivative matrices     ... done   (      0.0 sec)
Making the Q(x) pseudodensities                  ... done   (      0.0 sec)
Adding the E*S(x)*S(y) terms to the Hessian      ... done   (      0.0 sec)
Calculating energy weighted overlap derivatives  ... done   (      0.0 sec)
Two electron integral derivatives (SHARK-RI)     ... done   (      1.1 sec)
Exchange-correlation integral derivatives        ... done   (      4.3 sec)
tr(F(y)Q(x)) contribution to the Hessian         ... done   (      0.0 sec)
Response fock operator R(S(x)) (SHARK-RIJCOSX)   ... done   (      0.8 sec)
XC Response fock operator R(S(x))                ... done   (      1.0 sec)
tr(F(y)S(x)) contribution to the Hessian         ... done   (      0.0 sec)
Transforming and finalizing RHSs                 ... done   (      0.0 sec)

----------------------------------------------
Solving the CP-SCF equations (RIJCOSX)           ...
----------------------------------------------
     CP-SCF ITERATION   0:   1.5730e-01 (   0.4 sec   0/ 15 done)
     CP-SCF ITERATION   1:   1.8524e-02 (   0.5 sec   0/ 15 done)
     CP-SCF ITERATION   2:   4.9384e-03 (   0.5 sec   0/ 15 done)
     CP-SCF ITERATION   3:   1.5788e-03 (   0.5 sec   0/ 15 done)
     CP-SCF ITERATION   4:   3.6636e-04 (   0.5 sec   0/ 15 done)
     CP-SCF ITERATION   5:   6.5255e-05 (   0.5 sec  15/ 15 done)
                    *** THE CP-SCF HAS CONVERGED ***

                                                 ... done   (      2.8 sec)
Forming perturbed density Hessian contributions  ... done   (      0.0 sec)
2nd integral derivative contribs (SHARK-RI)      ... done   (      5.1 sec)
Exchange-correlation Hessian                     ... done   (      4.0 sec)
Dipole derivatives                               ... (center of mass: -10.083718,  6.095790  0.333888)done   (      0.1 sec)

Total SCF Hessian time: 0 days 0 hours 0 min 19 sec 

Writing the Hessian file to the disk             ... done


Maximum memory used throughout the entire SCFHESS-calculation: 69.0 MB

-----------------------
VIBRATIONAL FREQUENCIES
-----------------------

Scaling factor for frequencies =  1.000000000  (already applied!)

   0:         0.00 cm**-1
   1:         0.00 cm**-1
   2:         0.00 cm**-1
   3:         0.00 cm**-1
   4:         0.00 cm**-1
   5:         0.00 cm**-1
   6:       254.78 cm**-1
   7:       254.97 cm**-1
   8:       362.33 cm**-1
   9:       665.85 cm**-1
  10:       741.92 cm**-1
  11:       742.13 cm**-1
  12:      1220.08 cm**-1
  13:      1220.17 cm**-1
  14:      3169.43 cm**-1


------------
NORMAL MODES
------------

These modes are the Cartesian displacements weighted by the diagonal matrix
M(i,i)=1/sqrt(m[i]) where m[i] is the mass of the displaced atom
Thus, these vectors are normalized but *not* orthogonal

                  0          1          2          3          4          5    
      0       0.000000   0.000000   0.000000   0.000000   0.000000   0.000000
      1       0.000000   0.000000   0.000000   0.000000   0.000000   0.000000
      2       0.000000   0.000000   0.000000   0.000000   0.000000   0.000000
      3       0.000000   0.000000   0.000000   0.000000   0.000000   0.000000
      4       0.000000   0.000000   0.000000   0.000000   0.000000   0.000000
      5       0.000000   0.000000   0.000000   0.000000   0.000000   0.000000
      6       0.000000   0.000000   0.000000   0.000000   0.000000   0.000000
      7       0.000000   0.000000   0.000000   0.000000   0.000000   0.000000
      8       0.000000   0.000000   0.000000   0.000000   0.000000   0.000000
      9       0.000000   0.000000   0.000000   0.000000   0.000000   0.000000
     10       0.000000   0.000000   0.000000   0.000000   0.000000   0.000000
     11       0.000000   0.000000   0.000000   0.000000   0.000000   0.000000
     12       0.000000   0.000000   0.000000   0.000000   0.000000   0.000000
     13       0.000000   0.000000   0.000000   0.000000   0.000000   0.000000
     14       0.000000   0.000000   0.000000   0.000000   0.000000   0.000000
                  6          7          8          9         10         11    
      0       0.109431  -0.260151   0.114455  -0.159453   0.611499   0.442794
      1      -0.156204  -0.001507   0.409186  -0.567585   0.096593  -0.405774
      2       0.218968   0.128942   0.234856  -0.323896  -0.469865   0.492842
      3       0.321171  -0.300267  -0.402725  -0.085950  -0.097695  -0.097798
      4       0.131883   0.218176   0.071183   0.102526   0.062396   0.083682
      5      -0.353104  -0.284275  -0.051042   0.033869   0.032237   0.001898
      6      -0.460804  -0.083389   0.246825   0.090596  -0.119824   0.008229
      7       0.188195  -0.181898   0.047188   0.096323  -0.088976   0.032930
      8      -0.077050   0.412674  -0.326244  -0.041090   0.080732  -0.031077
      9       0.097532   0.483734   0.113743   0.054084  -0.002870  -0.070030
     10      -0.259986  -0.035704  -0.269100   0.010238  -0.008225   0.029640
     11       0.345915  -0.178004   0.290776   0.126544   0.056381  -0.148458
     12       0.176793  -0.420046   0.118917  -0.165656   0.465005   0.337148
     13      -0.252245  -0.002224   0.425639  -0.590766   0.073178  -0.308858
     14       0.353711   0.208274   0.244241  -0.337348  -0.357570   0.375254
                 12         13         14    
      0      -0.036088   0.061519  -0.020438
      1       0.039103   0.005480  -0.073061
      2      -0.050611  -0.039618  -0.041849
      3      -0.002193   0.001465   0.000074
      4       0.007183  -0.010482   0.000291
      5       0.006240  -0.002366   0.000165
      6       0.004603   0.005632   0.000086
      7       0.002251   0.012179   0.000291
      8       0.002240   0.001303   0.000160
      9      -0.004117  -0.004171   0.000083
     10      -0.007591  -0.001434   0.000285
     11      -0.010876  -0.000824   0.000172
     12       0.490027  -0.835962   0.235019
     13      -0.530777  -0.074544   0.840070
     14       0.687341   0.538430   0.481187


-----------
IR SPECTRUM
-----------

 Mode   freq       eps      Int      T**2         TX        TY        TZ
       cm**-1   L/(mol*cm) km/mol    a.u.
----------------------------------------------------------------------------
  6:    254.78   0.000012    0.06  0.000014  ( 0.001413 -0.002010  0.002839)
  7:    254.97   0.000012    0.06  0.000014  (-0.003384 -0.000025  0.001688)
  8:    362.33   0.000091    0.46  0.000078  ( 0.002097  0.007444  0.004308)
  9:    665.85   0.001437    7.26  0.000674  (-0.006272 -0.021951 -0.012345)
 10:    741.92   0.033193  167.74  0.013962  ( 0.092991  0.014822 -0.071376)
 11:    742.13   0.033178  167.67  0.013951  ( 0.067299 -0.061719  0.074919)
 12:   1220.08   0.004511   22.80  0.001154  (-0.016677  0.018085 -0.023424)
 13:   1220.17   0.004504   22.76  0.001152  ( 0.028447  0.002547 -0.018334)
 14:   3169.43   0.000043    0.22  0.000004  (-0.000461 -0.001751 -0.000983)

* The epsilon (eps) is given for a Dirac delta lineshape.
** The dipole moment derivative (T) already includes vibrational overlap.

The first frequency considered to be a vibration is 6
The total number of vibrations considered is 9


--------------------------
THERMOCHEMISTRY AT 298.15K
--------------------------

Temperature         ... 298.15 K
Pressure            ... 1.00 atm
Total Mass          ... 119.38 AMU

Throughout the following assumptions are being made:
  (1) The electronic state is orbitally nondegenerate
  (2) There are no thermally accessible electronically excited states
  (3) Hindered rotations indicated by low frequency modes are not
      treated as such but are treated as vibrations and this may
      cause some error
  (4) All equations used are the standard statistical mechanics
      equations for an ideal gas
  (5) All vibrations are strictly harmonic

freq.     254.78  E(vib)   ...       0.30 
freq.     254.97  E(vib)   ...       0.30 
freq.     362.33  E(vib)   ...       0.22 
freq.     665.85  E(vib)   ...       0.08 
freq.     741.92  E(vib)   ...       0.06 
freq.     742.13  E(vib)   ...       0.06 
freq.    1220.08  E(vib)   ...       0.01 
freq.    1220.17  E(vib)   ...       0.01 
freq.    3169.43  E(vib)   ...       0.00 

------------
INNER ENERGY
------------

The inner energy is: U= E(el) + E(ZPE) + E(vib) + E(rot) + E(trans)
    E(el)   - is the total energy from the electronic structure calculation
              = E(kin-el) + E(nuc-el) + E(el-el) + E(nuc-nuc)
    E(ZPE)  - the the zero temperature vibrational energy from the frequency calculation
    E(vib)  - the the finite temperature correction to E(ZPE) due to population
              of excited vibrational states
    E(rot)  - is the rotational thermal energy
    E(trans)- is the translational thermal energy

Summary of contributions to the inner energy U:
Electronic energy                ...  -1418.64074256 Eh
Zero point energy                ...      0.01966435 Eh      12.34 kcal/mol
Thermal vibrational correction   ...      0.00165912 Eh       1.04 kcal/mol
Thermal rotational correction    ...      0.00141627 Eh       0.89 kcal/mol
Thermal translational correction ...      0.00141627 Eh       0.89 kcal/mol
-----------------------------------------------------------------------
Total thermal energy                  -1418.61658656 Eh


Summary of corrections to the electronic energy:
(perhaps to be used in another calculation)
Total thermal correction                  0.00449166 Eh       2.82 kcal/mol
Non-thermal (ZPE) correction              0.01966435 Eh      12.34 kcal/mol
-----------------------------------------------------------------------
Total correction                          0.02415601 Eh      15.16 kcal/mol


--------
ENTHALPY
--------

The enthalpy is H = U + kB*T
                kB is Boltzmann's constant
Total free energy                 ...  -1418.61658656 Eh 
Thermal Enthalpy correction       ...      0.00094421 Eh       0.59 kcal/mol
-----------------------------------------------------------------------
Total Enthalpy                    ...  -1418.61564235 Eh


Note: Only C1 symmetry has been detected, increase convergence thresholds 
      if your molecule has a higher symmetry. Symmetry factor of 1.0 is   
      used for the rotational entropy correction. 
 

Note: Rotational entropy computed according to Herzberg 
Infrared and Raman Spectra, Chapter V,1, Van Nostrand Reinhold, 1945 
Point Group:  C1, Symmetry Number:   1  
Rotational constants in cm-1:     0.105764     0.105682     0.054783 

Vibrational entropy computed according to the QRRHO of S. Grimme
Chem.Eur.J. 2012 18 9955


-------
ENTROPY
-------

The entropy contributions are T*S = T*(S(el)+S(vib)+S(rot)+S(trans))
     S(el)   - electronic entropy
     S(vib)  - vibrational entropy
     S(rot)  - rotational entropy
     S(trans)- translational entropy
The entropies will be listed as multiplied by the temperature to get
units of energy

Electronic entropy                ...      0.00000000 Eh      0.00 kcal/mol
Vibrational entropy               ...      0.00259657 Eh      1.63 kcal/mol
Rotational entropy                ...      0.01300345 Eh      8.16 kcal/mol
Translational entropy             ...      0.01912210 Eh     12.00 kcal/mol
-----------------------------------------------------------------------
Final entropy term                ...      0.03472212 Eh     21.79 kcal/mol

In case the symmetry of your molecule has not been determined correctly
or in case you have a reason to use a different symmetry number we print 
out the resulting rotational entropy values for sn=1,12 :
 --------------------------------------------------------
|  sn= 1 | S(rot)=       0.01300345 Eh      8.16 kcal/mol|
|  sn= 2 | S(rot)=       0.01234899 Eh      7.75 kcal/mol|
|  sn= 3 | S(rot)=       0.01196616 Eh      7.51 kcal/mol|
|  sn= 4 | S(rot)=       0.01169454 Eh      7.34 kcal/mol|
|  sn= 5 | S(rot)=       0.01148385 Eh      7.21 kcal/mol|
|  sn= 6 | S(rot)=       0.01131171 Eh      7.10 kcal/mol|
|  sn= 7 | S(rot)=       0.01116616 Eh      7.01 kcal/mol|
|  sn= 8 | S(rot)=       0.01104008 Eh      6.93 kcal/mol|
|  sn= 9 | S(rot)=       0.01092887 Eh      6.86 kcal/mol|
|  sn=10 | S(rot)=       0.01082939 Eh      6.80 kcal/mol|
|  sn=11 | S(rot)=       0.01073940 Eh      6.74 kcal/mol|
|  sn=12 | S(rot)=       0.01065725 Eh      6.69 kcal/mol|
 --------------------------------------------------------


-------------------
GIBBS FREE ENERGY
-------------------

The Gibbs free energy is G = H - T*S

Total enthalpy                    ...  -1418.61564235 Eh 
Total entropy correction          ...     -0.03472212 Eh    -21.79 kcal/mol
-----------------------------------------------------------------------
Final Gibbs free energy         ...  -1418.65036447 Eh

For completeness - the Gibbs free energy minus the electronic energy
G-E(el)                           ...     -0.00962190 Eh     -6.04 kcal/mol


Timings for individual modules:

Sum of individual times         ...       43.386 sec (=   0.723 min)
GTO integral calculation        ...        0.467 sec (=   0.008 min)   1.1 %
SCF iterations                  ...       17.817 sec (=   0.297 min)  41.1 %
SCF Gradient evaluation         ...        5.089 sec (=   0.085 min)  11.7 %
Geometry relaxation             ...        0.047 sec (=   0.001 min)   0.1 %
Analytical frequency calculation...       19.966 sec (=   0.333 min)  46.0 %
                             ****ORCA TERMINATED NORMALLY****
TOTAL RUN TIME: 0 days 0 hours 0 minutes 43 seconds 577 msec
