
                                 *****************
                                 * O   R   C   A *
                                 *****************

                                            #,                                       
                                            ###                                      
                                            ####                                     
                                            #####                                    
                                            ######                                   
                                           ########,                                 
                                     ,,################,,,,,                         
                               ,,#################################,,                 
                          ,,##########################################,,             
                       ,#########################################, ''#####,          
                    ,#############################################,,   '####,        
                  ,##################################################,,,,####,       
                ,###########''''           ''''###############################       
              ,#####''   ,,,,##########,,,,          '''####'''          '####       
            ,##' ,,,,###########################,,,                        '##       
           ' ,,###''''                  '''############,,,                           
         ,,##''                                '''############,,,,        ,,,,,,###''
      ,#''                                            '''#######################'''  
     '                                                          ''''####''''         
             ,#######,   #######,   ,#######,      ##                                
            ,#'     '#,  ##    ##  ,#'     '#,    #''#        ######   ,####,        
            ##       ##  ##   ,#'  ##            #'  '#       #        #'  '#        
            ##       ##  #######   ##           ,######,      #####,   #    #        
            '#,     ,#'  ##    ##  '#,     ,#' ,#      #,         ##   #,  ,#        
             '#######'   ##     ##  '#######'  #'      '#     #####' # '####'        



                  #######################################################
                  #                        -***-                        #
                  #          Department of theory and spectroscopy      #
                  #    Directorship and core code : Frank Neese         #
                  #        Max Planck Institute fuer Kohlenforschung    #
                  #                Kaiser Wilhelm Platz 1               #
                  #                 D-45470 Muelheim/Ruhr               #
                  #                      Germany                        #
                  #                                                     #
                  #                  All rights reserved                #
                  #                        -***-                        #
                  #######################################################


                         Program Version 5.0.4 -  RELEASE  -


 With contributions from (in alphabetic order):
   Daniel Aravena         : Magnetic Suceptibility
   Michael Atanasov       : Ab Initio Ligand Field Theory (pilot matlab implementation)
   Alexander A. Auer      : GIAO ZORA, VPT2 properties, NMR spectrum
   Ute Becker             : Parallelization
   Giovanni Bistoni       : ED, misc. LED, open-shell LED, HFLD
   Martin Brehm           : Molecular dynamics
   Dmytro Bykov           : SCF Hessian
   Vijay G. Chilkuri      : MRCI spin determinant printing, contributions to CSF-ICE
   Dipayan Datta          : RHF DLPNO-CCSD density
   Achintya Kumar Dutta   : EOM-CC, STEOM-CC
   Dmitry Ganyushin       : Spin-Orbit,Spin-Spin,Magnetic field MRCI
   Miquel Garcia          : C-PCM and meta-GGA Hessian, CC/C-PCM, Gaussian charge scheme
   Yang Guo               : DLPNO-NEVPT2, F12-NEVPT2, CIM, IAO-localization
   Andreas Hansen         : Spin unrestricted coupled pair/coupled cluster methods
   Benjamin Helmich-Paris : MC-RPA, TRAH-SCF, COSX integrals
   Lee Huntington         : MR-EOM, pCC
   Robert Izsak           : Overlap fitted RIJCOSX, COSX-SCS-MP3, EOM
   Marcus Kettner         : VPT2
   Christian Kollmar      : KDIIS, OOCD, Brueckner-CCSD(T), CCSD density, CASPT2, CASPT2-K
   Simone Kossmann        : Meta GGA functionals, TD-DFT gradient, OOMP2, MP2 Hessian
   Martin Krupicka        : Initial AUTO-CI
   Lucas Lang             : DCDCAS
   Marvin Lechner         : AUTO-CI (C++ implementation), FIC-MRCC
   Dagmar Lenk            : GEPOL surface, SMD
   Dimitrios Liakos       : Extrapolation schemes; Compound Job, initial MDCI parallelization
   Dimitrios Manganas     : Further ROCIS development; embedding schemes
   Dimitrios Pantazis     : SARC Basis sets
   Anastasios Papadopoulos: AUTO-CI, single reference methods and gradients
   Taras Petrenko         : DFT Hessian,TD-DFT gradient, ASA, ECA, R-Raman, ABS, FL, XAS/XES, NRVS
   Peter Pinski           : DLPNO-MP2, DLPNO-MP2 Gradient
   Christoph Reimann      : Effective Core Potentials
   Marius Retegan         : Local ZFS, SOC
   Christoph Riplinger    : Optimizer, TS searches, QM/MM, DLPNO-CCSD(T), (RO)-DLPNO pert. Triples
   Tobias Risthaus        : Range-separated hybrids, TD-DFT gradient, RPA, STAB
   Michael Roemelt        : Original ROCIS implementation
   Masaaki Saitow         : Open-shell DLPNO-CCSD energy and density
   Barbara Sandhoefer     : DKH picture change effects
   Avijit Sen             : IP-ROCIS
   Kantharuban Sivalingam : CASSCF convergence, NEVPT2, FIC-MRCI
   Bernardo de Souza      : ESD, SOC TD-DFT
   Georgi Stoychev        : AutoAux, RI-MP2 NMR, DLPNO-MP2 response
   Willem Van den Heuvel  : Paramagnetic NMR
   Boris Wezisla          : Elementary symmetry handling
   Frank Wennmohs         : Technical directorship


 We gratefully acknowledge several colleagues who have allowed us to
 interface, adapt or use parts of their codes:
   Stefan Grimme, W. Hujo, H. Kruse, P. Pracht,  : VdW corrections, initial TS optimization,
                  C. Bannwarth, S. Ehlert          DFT functionals, gCP, sTDA/sTD-DF
   Ed Valeev, F. Pavosevic, A. Kumar             : LibInt (2-el integral package), F12 methods
   Garnet Chan, S. Sharma, J. Yang, R. Olivares  : DMRG
   Ulf Ekstrom                                   : XCFun DFT Library
   Mihaly Kallay                                 : mrcc  (arbitrary order and MRCC methods)
   Jiri Pittner, Ondrej Demel                    : Mk-CCSD
   Frank Weinhold                                : gennbo (NPA and NBO analysis)
   Christopher J. Cramer and Donald G. Truhlar   : smd solvation model
   Lars Goerigk                                  : TD-DFT with DH, B97 family of functionals
   V. Asgeirsson, H. Jonsson                     : NEB implementation
   FAccTs GmbH                                   : IRC, NEB, NEB-TS, DLPNO-Multilevel, CI-OPT
                                                   MM, QMMM, 2- and 3-layer-ONIOM, Crystal-QMMM,
                                                   LR-CPCM, SF, NACMEs, symmetry and pop. for TD-DFT,
                                                   nearIR, NL-DFT gradient (VV10), updates on ESD,
                                                   ML-optimized integration grids
   S Lehtola, MJT Oliveira, MAL Marques          : LibXC Library
   Liviu Ungur et al                             : ANISO software


 Your calculation uses the libint2 library for the computation of 2-el integrals
 For citations please refer to: http://libint.valeyev.net

 Your ORCA version has been built with support for libXC version: 5.1.0
 For citations please refer to: https://tddft.org/programs/libxc/

 This ORCA versions uses:
   CBLAS   interface :  Fast vector & matrix operations
   LAPACKE interface :  Fast linear algebra routines
   SCALAPACK package :  Parallel linear algebra routines
   Shared memory     :  Shared parallel matrices
   BLAS/LAPACK       :  OpenBLAS 0.3.15  USE64BITINT DYNAMIC_ARCH NO_AFFINITY SkylakeX SINGLE_THREADED
        Core in use  :  SkylakeX
   Copyright (c) 2011-2014, The OpenBLAS Project


================================================================================

----- Orbital basis set information -----
Your calculation utilizes the basis: def2-SVP
   F. Weigend and R. Ahlrichs, Phys. Chem. Chem. Phys. 7, 3297 (2005).

----- AuxJ basis set information -----
Your calculation utilizes the auxiliary basis: def2/J
   F. Weigend, Phys. Chem. Chem. Phys. 8, 1057 (2006).

================================================================================
                                        WARNINGS
                       Please study these warnings very carefully!
================================================================================


WARNING: Geometry Optimization
  ===> : Switching off AutoStart
         For restart on a previous wavefunction, please use MOREAD

INFO   : the flag for use of the SHARK integral package has been found!

================================================================================
                                       INPUT FILE
================================================================================
NAME = methane.inp
|  1> # avogadro generated ORCA input file 
|  2> # Basic Mode
|  3> # 
|  4> ! B3LYP OPT def2-SVP FREQ
|  5> 
|  6> 
|  7> * xyz 0 1
|  8> C     -6.070619    2.534352   -0.000002
|  9> H     -5.254035    2.280829    0.679565
| 10> H     -5.741311    3.314501   -0.689757
| 11> H     -6.361840    1.646965   -0.566271
| 12> H     -6.925285    2.895031    0.576481
| 13> *
| 14> 
| 15> 
| 16>                          ****END OF INPUT****
================================================================================

                       *****************************
                       * Geometry Optimization Run *
                       *****************************

Geometry optimization settings:
Update method            Update   .... BFGS
Choice of coordinates    CoordSys .... Z-matrix Internals
Initial Hessian          InHess   .... Almoef's Model

Convergence Tolerances:
Energy Change            TolE     ....  5.0000e-06 Eh
Max. Gradient            TolMAXG  ....  3.0000e-04 Eh/bohr
RMS Gradient             TolRMSG  ....  1.0000e-04 Eh/bohr
Max. Displacement        TolMAXD  ....  4.0000e-03 bohr
RMS Displacement         TolRMSD  ....  2.0000e-03 bohr
Strict Convergence                ....  False
------------------------------------------------------------------------------
                        ORCA OPTIMIZATION COORDINATE SETUP
------------------------------------------------------------------------------

The optimization will be done in new redundant internal coordinates
Making redundant internal coordinates   ...  (new redundants) done
Evaluating the initial hessian          ...  (Almloef) done
Evaluating the coordinates              ...  done
Calculating the B-matrix                .... done
Calculating the G-matrix                .... done
Diagonalizing the G-matrix              .... done
The first mode is                       ....    1
The number of degrees of freedom        ....    9

    -----------------------------------------------------------------
                    Redundant Internal Coordinates


    -----------------------------------------------------------------
         Definition                    Initial Value    Approx d2E/dq
    -----------------------------------------------------------------
      1. B(H   1,C   0)                  1.0922         0.357205   
      2. B(H   2,C   0)                  1.0922         0.357239   
      3. B(H   3,C   0)                  1.0922         0.357186   
      4. B(H   4,C   0)                  1.0922         0.357216   
      5. A(H   1,C   0,H   3)          109.4720         0.290101   
      6. A(H   2,C   0,H   3)          109.4703         0.290105   
      7. A(H   1,C   0,H   4)          109.4692         0.290105   
      8. A(H   2,C   0,H   4)          109.4752         0.290109   
      9. A(H   3,C   0,H   4)          109.4700         0.290102   
     10. A(H   1,C   0,H   2)          109.4707         0.290108   
    -----------------------------------------------------------------

Number of atoms                         .... 5
Number of degrees of freedom            .... 10

         *************************************************************
         *                GEOMETRY OPTIMIZATION CYCLE   1            *
         *************************************************************
---------------------------------
CARTESIAN COORDINATES (ANGSTROEM)
---------------------------------
  C     -6.070619    2.534352   -0.000002
  H     -5.254035    2.280829    0.679565
  H     -5.741311    3.314501   -0.689757
  H     -6.361840    1.646965   -0.566271
  H     -6.925285    2.895031    0.576481

----------------------------
CARTESIAN COORDINATES (A.U.)
----------------------------
  NO LB      ZA    FRAG     MASS         X           Y           Z
   0 C     6.0000    0    12.011  -11.471807    4.789231   -0.000004
   1 H     1.0000    0     1.008   -9.928687    4.310142    1.284192
   2 H     1.0000    0     1.008  -10.849505    6.263499   -1.303452
   3 H     1.0000    0     1.008  -12.022135    3.112313   -1.070097
   4 H     1.0000    0     1.008  -13.086892    5.470816    1.089391

--------------------------------
INTERNAL COORDINATES (ANGSTROEM)
--------------------------------
 C      0   0   0     0.000000000000     0.00000000     0.00000000
 H      1   0   0     1.092197165385     0.00000000     0.00000000
 H      1   2   0     1.092171314900   109.47074526     0.00000000
 H      1   2   3     1.092211490038   109.47195197   119.99898738
 H      1   2   3     1.092188610949   109.46916987   239.99668015

---------------------------
INTERNAL COORDINATES (A.U.)
---------------------------
 C      0   0   0     0.000000000000     0.00000000     0.00000000
 H      1   0   0     2.063953526822     0.00000000     0.00000000
 H      1   2   0     2.063904676485   109.47074526     0.00000000
 H      1   2   3     2.063980596494   109.47195197   119.99898738
 H      1   2   3     2.063937361281   109.46916987   239.99668015

---------------------
BASIS SET INFORMATION
---------------------
There are 2 groups of distinct atoms

 Group   1 Type C   : 7s4p1d contracted to 3s2p1d pattern {511/31/1}
 Group   2 Type H   : 4s1p contracted to 2s1p pattern {31/1}

Atom   0C    basis set group =>   1
Atom   1H    basis set group =>   2
Atom   2H    basis set group =>   2
Atom   3H    basis set group =>   2
Atom   4H    basis set group =>   2
---------------------------------
AUXILIARY/J BASIS SET INFORMATION
---------------------------------
There are 2 groups of distinct atoms

 Group   1 Type C   : 12s5p4d2f1g contracted to 6s4p3d1f1g pattern {711111/2111/211/2/1}
 Group   2 Type H   : 5s2p1d contracted to 3s1p1d pattern {311/2/1}

Atom   0C    basis set group =>   1
Atom   1H    basis set group =>   2
Atom   2H    basis set group =>   2
Atom   3H    basis set group =>   2
Atom   4H    basis set group =>   2
------------------------------------------------------------------------------
                           ORCA GTO INTEGRAL CALCULATION
                           -- RI-GTO INTEGRALS CHOSEN --
------------------------------------------------------------------------------
------------------------------------------------------------------------------
                   ___                                                        
                  /   \      - P O W E R E D   B Y -                         
                 /     \                                                     
                 |  |  |   _    _      __       _____    __    __             
                 |  |  |  | |  | |    /  \     |  _  \  |  |  /  |          
                  \  \/   | |  | |   /    \    | | | |  |  | /  /          
                 / \  \   | |__| |  /  /\  \   | |_| |  |  |/  /          
                |  |  |   |  __  | /  /__\  \  |    /   |      \           
                |  |  |   | |  | | |   __   |  |    \   |  |\   \          
                \     /   | |  | | |  |  |  |  | |\  \  |  | \   \       
                 \___/    |_|  |_| |__|  |__|  |_| \__\ |__|  \__/        
                                                                              
                      - O R C A' S   B I G   F R I E N D -                    
                                      &                                       
                       - I N T E G R A L  F E E D E R -                       
                                                                              
 v1 FN, 2020, v2 2021                                                         
------------------------------------------------------------------------------


Reading SHARK input file methane.SHARKINP.tmp ... ok
----------------------
SHARK INTEGRAL PACKAGE
----------------------

Number of atoms                             ...      5
Number of basis functions                   ...     34
Number of shells                            ...     18
Maximum angular momentum                    ...      2
Integral batch strategy                     ... SHARK/LIBINT Hybrid
RI-J (if used) integral strategy            ... SPLIT-RIJ (Revised 2003 algorithm where possible)
Printlevel                                  ...      1
Contraction scheme used                     ... SEGMENTED contraction
Coulomb Range Separation                    ... NOT USED
Exchange Range Separation                   ... NOT USED
Finite Nucleus Model                        ... NOT USED
Auxiliary Coulomb fitting basis             ... AVAILABLE
   # of basis functions in Aux-J            ...     93
   # of shells in Aux-J                     ...     35
   Maximum angular momentum in Aux-J        ...      4
Auxiliary J/K fitting basis                 ... NOT available
Auxiliary Correlation fitting basis         ... NOT available
Auxiliary 'external' fitting basis          ... NOT available
Integral threshold                          ...     2.500000e-11
Primitive cut-off                           ...     2.500000e-12
Primitive pair pre-selection threshold      ...     2.500000e-12

Calculating pre-screening integrals         ... done (  0.0 sec) Dimension = 18
Organizing shell pair data                  ... done (  0.0 sec)
Shell pair information
Total number of shell pairs                 ...       171
Shell pairs after pre-screening             ...       171
Total number of primitive shell pairs       ...       553
Primitive shell pairs kept                  ...       535
          la=0 lb=0:     66 shell pairs
          la=1 lb=0:     66 shell pairs
          la=1 lb=1:     21 shell pairs
          la=2 lb=0:     11 shell pairs
          la=2 lb=1:      6 shell pairs
          la=2 lb=2:      1 shell pairs

Calculating one electron integrals          ... done (  0.0 sec)
Calculating RI/J V-Matrix + Cholesky decomp.... done (  0.0 sec)
Calculating Nuclear repulsion               ... done (  0.0 sec) ENN=     13.408422941471 Eh

SHARK setup successfully completed in   0.1 seconds

Maximum memory used throughout the entire GTOINT-calculation: 8.8 MB
-------------------------------------------------------------------------------
                                 ORCA SCF
-------------------------------------------------------------------------------

------------
SCF SETTINGS
------------
Hamiltonian:
 Density Functional     Method          .... DFT(GTOs)
 Exchange Functional    Exchange        .... B88
   X-Alpha parameter    XAlpha          ....  0.666667
   Becke's b parameter  XBeta           ....  0.004200
 Correlation Functional Correlation     .... LYP
 LDA part of GGA corr.  LDAOpt          .... VWN-5
 Gradients option       PostSCFGGA      .... off
 Hybrid DFT is turned on
   Fraction HF Exchange ScalHFX         ....  0.200000
   Scaling of DF-GGA-X  ScalDFX         ....  0.720000
   Scaling of DF-GGA-C  ScalDFC         ....  0.810000
   Scaling of DF-LDA-C  ScalLDAC        ....  1.000000
   Perturbative correction              ....  0.000000
   Density functional embedding theory  .... OFF
   NL short-range parameter             ....  4.800000
 RI-approximation to the Coulomb term is turned on
   Number of AuxJ basis functions       .... 93
   RIJ-COSX (HFX calculated with COS-X)).... on


General Settings:
 Integral files         IntName         .... methane
 Hartree-Fock type      HFTyp           .... RHF
 Total Charge           Charge          ....    0
 Multiplicity           Mult            ....    1
 Number of Electrons    NEL             ....   10
 Basis Dimension        Dim             ....   34
 Nuclear Repulsion      ENuc            ....     13.4084229415 Eh

Convergence Acceleration:
 DIIS                   CNVDIIS         .... on
   Start iteration      DIISMaxIt       ....    12
   Startup error        DIISStart       ....  0.200000
   # of expansion vecs  DIISMaxEq       ....     5
   Bias factor          DIISBfac        ....   1.050
   Max. coefficient     DIISMaxC        ....  10.000
 Trust-Rad. Augm. Hess. CNVTRAH         .... auto
   Auto Start mean grad. ratio tolernc. ....  1.125000
   Auto Start start iteration           ....    20
   Auto Start num. interpolation iter.  ....    10
   Max. Number of Micro iterations      ....    16
   Max. Number of Macro iterations      .... Maxiter - #DIIS iter
   Number of Davidson start vectors     ....     2
   Converg. threshold I  (grad. norm)   ....   1.000e-05
   Converg. threshold II (energy diff.) ....   1.000e-08
   Grad. Scal. Fac. for Micro threshold ....   0.100
   Minimum threshold for Micro iter.    ....   0.010
   NR start threshold (gradient norm)   ....   0.001
   Initial trust radius                 ....   0.400
   Minimum AH scaling param. (alpha)    ....   1.000
   Maximum AH scaling param. (alpha)    .... 1000.000
   Orbital update algorithm             .... Taylor
   White noise on init. David. guess    .... on
   Maximum white noise                  ....   0.010
   Quad. conv. algorithm                .... NR
 SOSCF                  CNVSOSCF        .... on
   Start iteration      SOSCFMaxIt      ....   150
   Startup grad/error   SOSCFStart      ....  0.003300
 Level Shifting         CNVShift        .... on
   Level shift para.    LevelShift      ....    0.2500
   Turn off err/grad.   ShiftErr        ....    0.0010
 Zerner damping         CNVZerner       .... off
 Static damping         CNVDamp         .... on
   Fraction old density DampFac         ....    0.7000
   Max. Damping (<1)    DampMax         ....    0.9800
   Min. Damping (>=0)   DampMin         ....    0.0000
   Turn off err/grad.   DampErr         ....    0.1000
 Fernandez-Rico         CNVRico         .... off

SCF Procedure:
 Maximum # iterations   MaxIter         ....   125
 SCF integral mode      SCFMode         .... Direct
   Integral package                     .... SHARK and LIBINT hybrid scheme
 Reset frequency        DirectResetFreq ....    20
 Integral Threshold     Thresh          ....  2.500e-11 Eh
 Primitive CutOff       TCut            ....  2.500e-12 Eh

Convergence Tolerance:
 Convergence Check Mode ConvCheckMode   .... Total+1el-Energy
 Convergence forced     ConvForced      .... 0
 Energy Change          TolE            ....  1.000e-08 Eh
 1-El. energy change                    ....  1.000e-05 Eh
 Orbital Gradient       TolG            ....  1.000e-05
 Orbital Rotation angle TolX            ....  1.000e-05
 DIIS Error             TolErr          ....  5.000e-07


Diagonalization of the overlap matrix:
Smallest eigenvalue                        ... 1.399e-02
Time for diagonalization                   ...    0.003 sec
Threshold for overlap eigenvalues          ... 1.000e-08
Number of eigenvalues below threshold      ... 0
Time for construction of square roots      ...    0.001 sec
Total time needed                          ...    0.003 sec

Time for model grid setup =    0.014 sec

------------------------------
INITIAL GUESS: MODEL POTENTIAL
------------------------------
Loading Hartree-Fock densities                     ... done
Calculating cut-offs                               ... done
Initializing the effective Hamiltonian             ... done
Setting up the integral package (SHARK)            ... done
Starting the Coulomb interaction                   ... done (   0.0 sec)
Reading the grid                                   ... done
Mapping shells                                     ... done
Starting the XC term evaluation                    ... done (   0.0 sec)
  promolecular density results
     # of electrons  =      9.997075648
     EX              =     -6.306038132
     EC              =     -0.288467696
     EX+EC           =     -6.594505828
Transforming the Hamiltonian                       ... done (   0.0 sec)
Diagonalizing the Hamiltonian                      ... done (   0.0 sec)
Back transforming the eigenvectors                 ... done (   0.0 sec)
Now organizing SCF variables                       ... done
                      ------------------
                      INITIAL GUESS DONE (   0.0 sec)
                      ------------------
-------------------
DFT GRID GENERATION
-------------------

General Integration Accuracy     IntAcc      ... 4.388
Radial Grid Type                 RadialGrid  ... OptM3 with GC (2021)
Angular Grid (max. ang.)         AngularGrid ... 4 (Lebedev-302)
Angular grid pruning method      GridPruning ... 4 (adaptive)
Weight generation scheme         WeightScheme... Becke
Basis function cutoff            BFCut       ... 1.0000e-11
Integration weight cutoff        WCut        ... 1.0000e-14
Angular grids for H and He will be reduced by one unit
Partially contracted basis set               ... off
Rotationally invariant grid construction     ... off

Total number of grid points                  ...    19261
Total number of batches                      ...      303
Average number of points per batch           ...       63
Average number of grid points per atom       ...     3852
Time for grid setup =    0.056 sec

--------------------
COSX GRID GENERATION
--------------------

GRIDX 1
-------
General Integration Accuracy     IntAcc      ... 3.816
Radial Grid Type                 RadialGrid  ... OptM3 with GC (2021)
Angular Grid (max. ang.)         AngularGrid ... 1 (Lebedev-50)
Angular grid pruning method      GridPruning ... 4 (adaptive)
Weight generation scheme         WeightScheme... Becke
Basis function cutoff            BFCut       ... 1.0000e-11
Integration weight cutoff        WCut        ... 1.0000e-14
Angular grids for H and He will be reduced by one unit
Partially contracted basis set               ... on
Rotationally invariant grid construction     ... off

Total number of grid points                  ...     2534
Total number of batches                      ...       43
Average number of points per batch           ...       58
Average number of grid points per atom       ...      507
UseSFitting                                  ... on

GRIDX 2
-------
General Integration Accuracy     IntAcc      ... 4.020
Radial Grid Type                 RadialGrid  ... OptM3 with GC (2021)
Angular Grid (max. ang.)         AngularGrid ... 2 (Lebedev-110)
Angular grid pruning method      GridPruning ... 4 (adaptive)
Weight generation scheme         WeightScheme... Becke
Basis function cutoff            BFCut       ... 1.0000e-11
Integration weight cutoff        WCut        ... 1.0000e-14
Angular grids for H and He will be reduced by one unit
Partially contracted basis set               ... on
Rotationally invariant grid construction     ... off

Total number of grid points                  ...     5100
Total number of batches                      ...       81
Average number of points per batch           ...       62
Average number of grid points per atom       ...     1020
UseSFitting                                  ... on

GRIDX 3
-------
General Integration Accuracy     IntAcc      ... 4.338
Radial Grid Type                 RadialGrid  ... OptM3 with GC (2021)
Angular Grid (max. ang.)         AngularGrid ... 3 (Lebedev-194)
Angular grid pruning method      GridPruning ... 4 (adaptive)
Weight generation scheme         WeightScheme... Becke
Basis function cutoff            BFCut       ... 1.0000e-11
Integration weight cutoff        WCut        ... 1.0000e-14
Angular grids for H and He will be reduced by one unit
Partially contracted basis set               ... on
Rotationally invariant grid construction     ... off

Total number of grid points                  ...    11206
Total number of batches                      ...      177
Average number of points per batch           ...       63
Average number of grid points per atom       ...     2241
UseSFitting                                  ... on

Time for X-Grid setup             =    0.052 sec

--------------
SCF ITERATIONS
--------------
ITER       Energy         Delta-E        Max-DP      RMS-DP      [F,P]     Damp
               ***  Starting incremental Fock matrix formation  ***
  0    -40.3785871347   0.000000000000 0.08658796  0.00515349  0.1981069 0.7000
  1    -40.4130707161  -0.034483581420 0.05295621  0.00365287  0.1030429 0.7000
                               ***Turning on DIIS***
  2    -40.4270473738  -0.013976657776 0.07211119  0.00607447  0.0382099 0.0000
  3    -40.4451180792  -0.018070705308 0.03625846  0.00234349  0.0582402 0.0000
  4    -40.4513225526  -0.006204473468 0.00673577  0.00071415  0.0148039 0.0000
  5    -40.4517481944  -0.000425641732 0.00215763  0.00025049  0.0037388 0.0000
                      *** Initiating the SOSCF procedure ***
                           *** Shutting down DIIS ***
                      *** Re-Reading the Fockian *** 
                      *** Removing any level shift *** 
ITER      Energy       Delta-E        Grad      Rot      Max-DP    RMS-DP
  6    -40.45177902  -0.0000308249  0.000301  0.000301  0.001128  0.000131
               *** Restarting incremental Fock matrix formation ***
  7    -40.45178040  -0.0000013796  0.000050  0.000046  0.000168  0.000010
  8    -40.45178042  -0.0000000226  0.000041  0.000028  0.000068  0.000005
                 **** Energy Check signals convergence ****
              ***Rediagonalizing the Fockian in SOSCF/NRSCF***

               *****************************************************
               *                     SUCCESS                       *
               *           SCF CONVERGED AFTER   9 CYCLES          *
               *****************************************************

Old exchange energy                            =     -1.314034377 Eh
New exchange energy                            =     -1.314036013 Eh
Exchange energy change after final integration =     -0.000001636 Eh
Total energy after final integration           =    -40.451782065 Eh
Final COS-X integration done in                =     0.128 sec

----------------
TOTAL SCF ENERGY
----------------

Total Energy       :          -40.45178207 Eh           -1100.74895 eV

Components:
Nuclear Repulsion  :           13.40842294 Eh             364.86174 eV
Electronic Energy  :          -53.86020501 Eh           -1465.61069 eV
One Electron Energy:          -79.71173343 Eh           -2169.06654 eV
Two Electron Energy:           25.85152842 Eh             703.45585 eV
Max COSX asymmetry :            0.00000112 Eh               0.00003 eV

Virial components:
Potential Energy   :          -80.31964366 Eh           -2185.60862 eV
Kinetic Energy     :           39.86786160 Eh            1084.85967 eV
Virial Ratio       :            2.01464640


DFT components:
N(Alpha)           :        4.999999764859 electrons
N(Beta)            :        4.999999764859 electrons
N(Total)           :        9.999999529718 electrons
E(X)               :       -5.191313224107 Eh       
E(C)               :       -0.351036889668 Eh       
E(XC)              :       -5.542350113775 Eh       
DFET-embed. en.    :        0.000000000000 Eh       

---------------
SCF CONVERGENCE
---------------

  Last Energy change         ...   -7.4363e-09  Tolerance :   1.0000e-08
  Last MAX-Density change    ...    1.3323e-15  Tolerance :   1.0000e-07
  Last RMS-Density change    ...    4.2288e-17  Tolerance :   5.0000e-09
  Last Orbital Gradient      ...    1.5837e-06  Tolerance :   1.0000e-05
  Last Orbital Rotation      ...    1.8639e-06  Tolerance :   1.0000e-05

             **** THE GBW FILE WAS UPDATED (methane.gbw) ****
             **** DENSITY methane.scfp WAS UPDATED ****
             **** ENERGY FILE WAS UPDATED (methane.en.tmp) ****
             **** THE GBW FILE WAS UPDATED (methane.gbw) ****
             **** DENSITY methane.scfp WAS UPDATED ****
----------------
ORBITAL ENERGIES
----------------

  NO   OCC          E(Eh)            E(eV) 
   0   2.0000     -10.169620      -276.7294 
   1   2.0000      -0.682370       -18.5682 
   2   2.0000      -0.387862       -10.5543 
   3   2.0000      -0.387859       -10.5542 
   4   2.0000      -0.387848       -10.5539 
   5   0.0000       0.074856         2.0369 
   6   0.0000       0.146894         3.9972 
   7   0.0000       0.146896         3.9972 
   8   0.0000       0.146902         3.9974 
   9   0.0000       0.419939        11.4271 
  10   0.0000       0.419957        11.4276 
  11   0.0000       0.419970        11.4280 
  12   0.0000       0.657411        17.8891 
  13   0.0000       0.683421        18.5968 
  14   0.0000       0.683442        18.5974 
  15   0.0000       0.683453        18.5977 
  16   0.0000       0.780341        21.2342 
  17   0.0000       1.097688        29.8696 
  18   0.0000       1.097713        29.8703 
  19   0.0000       1.537930        41.8492 
  20   0.0000       1.537932        41.8493 
  21   0.0000       1.537938        41.8494 
  22   0.0000       1.764303        48.0091 
  23   0.0000       1.764304        48.0091 
  24   0.0000       1.764306        48.0092 
  25   0.0000       2.136356        58.1332 
  26   0.0000       2.136377        58.1338 
  27   0.0000       2.136390        58.1341 
  28   0.0000       2.531207        68.8776 
  29   0.0000       2.531231        68.8783 
  30   0.0000       2.603486        70.8444 
  31   0.0000       2.910494        79.1986 
  32   0.0000       2.910515        79.1991 
  33   0.0000       2.910538        79.1998 

                    ********************************
                    * MULLIKEN POPULATION ANALYSIS *
                    ********************************

-----------------------
MULLIKEN ATOMIC CHARGES
-----------------------
   0 C :   -0.105482
   1 H :    0.026370
   2 H :    0.026387
   3 H :    0.026340
   4 H :    0.026386
Sum of atomic charges:   -0.0000000

--------------------------------
MULLIKEN REDUCED ORBITAL CHARGES
--------------------------------
  0 C s       :     3.041660  s :     3.041660
      pz      :     1.013886  p :     3.041754
      px      :     1.013937
      py      :     1.013931
      dz2     :     0.000178  d :     0.022068
      dxz     :     0.007322
      dyz     :     0.007153
      dx2y2   :     0.004267
      dxy     :     0.003147
  1 H s       :     0.949526  s :     0.949526
      pz      :     0.008524  p :     0.024104
      px      :     0.010081
      py      :     0.005499
  2 H s       :     0.949510  s :     0.949510
      pz      :     0.008629  p :     0.024103
      px      :     0.005835
      py      :     0.009639
  3 H s       :     0.949557  s :     0.949557
      pz      :     0.007450  p :     0.024104
      px      :     0.005656
      py      :     0.010998
  4 H s       :     0.949510  s :     0.949510
      pz      :     0.007538  p :     0.024104
      px      :     0.010565
      py      :     0.006000


                     *******************************
                     * LOEWDIN POPULATION ANALYSIS *
                     *******************************

----------------------
LOEWDIN ATOMIC CHARGES
----------------------
   0 C :   -0.105242
   1 H :    0.026314
   2 H :    0.026308
   3 H :    0.026310
   4 H :    0.026310

-------------------------------
LOEWDIN REDUCED ORBITAL CHARGES
-------------------------------
  0 C s       :     2.839561  s :     2.839561
      pz      :     1.070062  p :     3.210226
      px      :     1.070082
      py      :     1.070082
      dz2     :     0.000448  d :     0.055454
      dxz     :     0.018399
      dyz     :     0.017975
      dx2y2   :     0.010723
      dxy     :     0.007911
  1 H s       :     0.909024  s :     0.909024
      pz      :     0.023012  p :     0.064662
      px      :     0.027667
      py      :     0.013983
  2 H s       :     0.909026  s :     0.909026
      pz      :     0.023331  p :     0.064666
      px      :     0.014986
      py      :     0.026348
  3 H s       :     0.909031  s :     0.909031
      pz      :     0.019805  p :     0.064659
      px      :     0.014448
      py      :     0.030406
  4 H s       :     0.909027  s :     0.909027
      pz      :     0.020073  p :     0.064663
      px      :     0.029113
      py      :     0.015477


                      *****************************
                      * MAYER POPULATION ANALYSIS *
                      *****************************

  NA   - Mulliken gross atomic population
  ZA   - Total nuclear charge
  QA   - Mulliken gross atomic charge
  VA   - Mayer's total valence
  BVA  - Mayer's bonded valence
  FA   - Mayer's free valence

  ATOM       NA         ZA         QA         VA         BVA        FA
  0 C      6.1055     6.0000    -0.1055     3.9957     3.9957    -0.0000
  1 H      0.9736     1.0000     0.0264     0.9922     0.9922    -0.0000
  2 H      0.9736     1.0000     0.0264     0.9922     0.9922    -0.0000
  3 H      0.9737     1.0000     0.0263     0.9922     0.9922     0.0000
  4 H      0.9736     1.0000     0.0264     0.9922     0.9922    -0.0000

  Mayer bond orders larger than 0.100000
B(  0-C ,  1-H ) :   0.9989 B(  0-C ,  2-H ) :   0.9989 B(  0-C ,  3-H ) :   0.9989 
B(  0-C ,  4-H ) :   0.9989 

-------
TIMINGS
-------

Total SCF time: 0 days 0 hours 0 min 1 sec 

Total time                  ....       1.525 sec
Sum of individual times     ....       1.448 sec  ( 95.0%)

Fock matrix formation       ....       1.307 sec  ( 85.7%)
  Split-RI-J                ....       0.128 sec  (  9.8% of F)
  Chain of spheres X        ....       0.664 sec  ( 50.8% of F)
  XC integration            ....       0.516 sec  ( 39.5% of F)
    Basis function eval.    ....       0.201 sec  ( 38.9% of XC)
    Density eval.           ....       0.062 sec  ( 12.1% of XC)
    XC-Functional eval.     ....       0.150 sec  ( 29.0% of XC)
    XC-Potential eval.      ....       0.073 sec  ( 14.1% of XC)
Diagonalization             ....       0.002 sec  (  0.1%)
Density matrix formation    ....       0.000 sec  (  0.0%)
Population analysis         ....       0.001 sec  (  0.1%)
Initial guess               ....       0.016 sec  (  1.0%)
Orbital Transformation      ....       0.000 sec  (  0.0%)
Orbital Orthonormalization  ....       0.000 sec  (  0.0%)
DIIS solution               ....       0.001 sec  (  0.0%)
SOSCF solution              ....       0.000 sec  (  0.0%)
Grid generation             ....       0.122 sec  (  8.0%)

Maximum memory used throughout the entire SCF-calculation: 44.0 MB

-------------------------   --------------------
FINAL SINGLE POINT ENERGY       -40.451782065285
-------------------------   --------------------

------------------------------------------------------------------------------
                         ORCA SCF GRADIENT CALCULATION
------------------------------------------------------------------------------

 ... reading COSX grid (gridx3)
Gradient of the Kohn-Sham DFT energy:
Kohn-Sham wavefunction type      ... RKS
Hartree-Fock exchange scaling    ...    0.200
Number of operators              ...    1
Number of atoms                  ...    5
Basis set dimensions             ...   34
Integral neglect threshold       ... 2.5e-11
Integral primitive cutoff        ... 2.5e-12
SHARK Integral package           ... ON

Nuc. rep. gradient       (SHARK) ... done (  0.0 sec)
HCore & Overlap gradient (SHARK) ... done (  0.0 sec)
RI-J gradient            (SHARK) ... done (  0.1 sec)
COSX-gradient                    ... done (  0.2 sec)
Exchange-correlation gradient    ... done

------------------
CARTESIAN GRADIENT
------------------

   1   C   :   -0.000054092    0.000048373   -0.000024908
   2   H   :   -0.003717878    0.001155969   -0.003088102
   3   H   :   -0.001502471   -0.003565297    0.003154139
   4   H   :    0.001310415    0.004031863    0.002556467
   5   H   :    0.003898597   -0.001639987   -0.002623025

Difference to translation invariance:
           :   -0.0000654289    0.0000309212   -0.0000254286

Difference to rotation invariance:
           :   -0.0000976680   -0.0002899835   -0.0000723024

Norm of the cartesian gradient     ...    0.0099446476
RMS gradient                       ...    0.0025676970
MAX gradient                       ...    0.0040318632

-------
TIMINGS
-------

Total SCF gradient time            ...        0.499 sec

One electron gradient       ....       0.004 sec  (  0.8%)
RI-J Coulomb gradient       ....       0.054 sec  ( 10.9%)
COSX gradient               ....       0.172 sec  ( 34.6%)
XC gradient                 ....       0.143 sec  ( 28.7%)

Maximum memory used throughout the entire SCFGRAD-calculation: 33.6 MB
------------------------------------------------------------------------------
                         ORCA GEOMETRY RELAXATION STEP
------------------------------------------------------------------------------

Reading the OPT-File                    .... done
Getting information on internals        .... done
Copying old internal coords+grads       .... done
Making the new internal coordinates     .... (new redundants).... done
Validating the new internal coordinates .... (new redundants).... done
Calculating the B-matrix                .... done
Calculating the G,G- and P matrices     .... done
Transforming gradient to internals      .... done
Projecting the internal gradient        .... done
Number of atoms                         ....   5
Number of internal coordinates          ....  10
Current Energy                          ....   -40.451782065 Eh
Current gradient norm                   ....     0.009944648 Eh/bohr
Maximum allowed component of the step   ....  0.300
Current trust radius                    ....  0.300
Evaluating the initial hessian          ....  (Almloef) done
Projecting the Hessian                  .... done
Forming the augmented Hessian           .... done
Diagonalizing the augmented Hessian     .... done
Last element of RFO vector              ....  0.999613318
Lowest eigenvalues of augmented Hessian:
 -0.000276629  0.290101406  0.290103210  0.290104967  0.290106724
Length of the computed step             ....  0.027817509
The final length of the internal step   ....  0.027817509
Converting the step to cartesian space:
 Initial RMS(Int)=    0.0087966686
Transforming coordinates:
 Iter   0:  RMS(Cart)=    0.0071824230 RMS(Int)=    0.0087966686
 Iter   1:  RMS(Cart)=    0.0000001959 RMS(Int)=    0.0000002301
 Iter   2:  RMS(Cart)=    0.0000000013 RMS(Int)=    0.0000000015
done
Storing new coordinates                 .... done

                                .--------------------.
          ----------------------|Geometry convergence|-------------------------
          Item                value                   Tolerance       Converged
          ---------------------------------------------------------------------
          RMS gradient        0.0031446994            0.0001000000      NO
          MAX gradient        0.0049954117            0.0003000000      NO
          RMS step            0.0087966686            0.0020000000      NO
          MAX step            0.0139725668            0.0040000000      NO
          ........................................................
          Max(Bonds)      0.0074      Max(Angles)    0.00
          Max(Dihed)        0.00      Max(Improp)    0.00
          ---------------------------------------------------------------------

The optimization has not yet converged - more geometry cycles are needed


    ---------------------------------------------------------------------------
                         Redundant Internal Coordinates
                            (Angstroem and degrees)

        Definition                    Value    dE/dq     Step     New-Value
    ----------------------------------------------------------------------------
     1. B(H   1,C   0)                1.0922 -0.004955  0.0073    1.0995   
     2. B(H   2,C   0)                1.0922 -0.004995  0.0074    1.0996   
     3. B(H   3,C   0)                1.0922 -0.004952  0.0073    1.0995   
     4. B(H   4,C   0)                1.0922 -0.004986  0.0074    1.0996   
     5. A(H   1,C   0,H   3)          109.47 -0.000002    0.00    109.47   
     6. A(H   2,C   0,H   3)          109.47  0.000001   -0.00    109.47   
     7. A(H   1,C   0,H   4)          109.47 -0.000014    0.00    109.47   
     8. A(H   2,C   0,H   4)          109.48  0.000016   -0.00    109.47   
     9. A(H   3,C   0,H   4)          109.47  0.000016   -0.00    109.47   
    10. A(H   1,C   0,H   2)          109.47 -0.000017    0.00    109.47   
    ----------------------------------------------------------------------------

         *************************************************************
         *                GEOMETRY OPTIMIZATION CYCLE   2            *
         *************************************************************
---------------------------------
CARTESIAN COORDINATES (ANGSTROEM)
---------------------------------
  C     -6.070592    2.534339    0.000010
  H     -5.248530    2.279094    0.684140
  H     -5.739103    3.319782   -0.694425
  H     -6.363801    1.641006   -0.570056
  H     -6.931062    2.897458    0.580346

----------------------------
CARTESIAN COORDINATES (A.U.)
----------------------------
  NO LB      ZA    FRAG     MASS         X           Y           Z
   0 C     6.0000    0    12.011  -11.471757    4.789207    0.000019
   1 H     1.0000    0     1.008   -9.918285    4.306863    1.292838
   2 H     1.0000    0     1.008  -10.845333    6.273478   -1.312272
   3 H     1.0000    0     1.008  -12.025842    3.101051   -1.077250
   4 H     1.0000    0     1.008  -13.097810    5.475401    1.096696

--------------------------------
INTERNAL COORDINATES (ANGSTROEM)
--------------------------------
 C      0   0   0     0.000000000000     0.00000000     0.00000000
 H      1   0   0     1.099532078291     0.00000000     0.00000000
 H      1   2   0     1.099565278770   109.47411200     0.00000000
 H      1   2   3     1.099541822263   109.47232692   120.00107968
 H      1   2   3     1.099569746035   109.47193636   239.99671009

---------------------------
INTERNAL COORDINATES (A.U.)
---------------------------
 C      0   0   0     0.000000000000     0.00000000     0.00000000
 H      1   0   0     2.077814503432     0.00000000     0.00000000
 H      1   2   0     2.077877243244   109.47411200     0.00000000
 H      1   2   3     2.077832916869   109.47232692   120.00107968
 H      1   2   3     2.077885685151   109.47193636   239.99671009

------------------------------------------------------------------------------
                   ___                                                        
                  /   \      - P O W E R E D   B Y -                         
                 /     \                                                     
                 |  |  |   _    _      __       _____    __    __             
                 |  |  |  | |  | |    /  \     |  _  \  |  |  /  |          
                  \  \/   | |  | |   /    \    | | | |  |  | /  /          
                 / \  \   | |__| |  /  /\  \   | |_| |  |  |/  /          
                |  |  |   |  __  | /  /__\  \  |    /   |      \           
                |  |  |   | |  | | |   __   |  |    \   |  |\   \          
                \     /   | |  | | |  |  |  |  | |\  \  |  | \   \       
                 \___/    |_|  |_| |__|  |__|  |_| \__\ |__|  \__/        
                                                                              
                      - O R C A' S   B I G   F R I E N D -                    
                                      &                                       
                       - I N T E G R A L  F E E D E R -                       
                                                                              
 v1 FN, 2020, v2 2021                                                         
------------------------------------------------------------------------------


Reading SHARK input file methane.SHARKINP.tmp ... ok
----------------------
SHARK INTEGRAL PACKAGE
----------------------

Number of atoms                             ...      5
Number of basis functions                   ...     34
Number of shells                            ...     18
Maximum angular momentum                    ...      2
Integral batch strategy                     ... SHARK/LIBINT Hybrid
RI-J (if used) integral strategy            ... SPLIT-RIJ (Revised 2003 algorithm where possible)
Printlevel                                  ...      1
Contraction scheme used                     ... SEGMENTED contraction
Coulomb Range Separation                    ... NOT USED
Exchange Range Separation                   ... NOT USED
Finite Nucleus Model                        ... NOT USED
Auxiliary Coulomb fitting basis             ... AVAILABLE
   # of basis functions in Aux-J            ...     93
   # of shells in Aux-J                     ...     35
   Maximum angular momentum in Aux-J        ...      4
Auxiliary J/K fitting basis                 ... NOT available
Auxiliary Correlation fitting basis         ... NOT available
Auxiliary 'external' fitting basis          ... NOT available
Integral threshold                          ...     2.500000e-11
Primitive cut-off                           ...     2.500000e-12
Primitive pair pre-selection threshold      ...     2.500000e-12

Calculating pre-screening integrals         ... done (  0.0 sec) Dimension = 18
Organizing shell pair data                  ... done (  0.0 sec)
Shell pair information
Total number of shell pairs                 ...       171
Shell pairs after pre-screening             ...       171
Total number of primitive shell pairs       ...       553
Primitive shell pairs kept                  ...       535
          la=0 lb=0:     66 shell pairs
          la=1 lb=0:     66 shell pairs
          la=1 lb=1:     21 shell pairs
          la=2 lb=0:     11 shell pairs
          la=2 lb=1:      6 shell pairs
          la=2 lb=2:      1 shell pairs

Calculating one electron integrals          ... done (  0.0 sec)
Calculating RI/J V-Matrix + Cholesky decomp.... done (  0.0 sec)
Calculating Nuclear repulsion               ... done (  0.0 sec) ENN=     13.318670820253 Eh

SHARK setup successfully completed in   0.1 seconds

Maximum memory used throughout the entire GTOINT-calculation: 8.8 MB

Diagonalization of the overlap matrix:
Smallest eigenvalue                        ... 1.429e-02
Time for diagonalization                   ...    0.001 sec
Threshold for overlap eigenvalues          ... 1.000e-08
Number of eigenvalues below threshold      ... 0
Time for construction of square roots      ...    0.000 sec
Total time needed                          ...    0.001 sec

-------------------
DFT GRID GENERATION
-------------------

General Integration Accuracy     IntAcc      ... 4.388
Radial Grid Type                 RadialGrid  ... OptM3 with GC (2021)
Angular Grid (max. ang.)         AngularGrid ... 4 (Lebedev-302)
Angular grid pruning method      GridPruning ... 4 (adaptive)
Weight generation scheme         WeightScheme... Becke
Basis function cutoff            BFCut       ... 1.0000e-11
Integration weight cutoff        WCut        ... 1.0000e-14
Angular grids for H and He will be reduced by one unit
Partially contracted basis set               ... off
Rotationally invariant grid construction     ... off

Total number of grid points                  ...    19266
Total number of batches                      ...      304
Average number of points per batch           ...       63
Average number of grid points per atom       ...     3853
Time for grid setup =    0.076 sec

--------------------
COSX GRID GENERATION
--------------------

GRIDX 1
-------
General Integration Accuracy     IntAcc      ... 3.816
Radial Grid Type                 RadialGrid  ... OptM3 with GC (2021)
Angular Grid (max. ang.)         AngularGrid ... 1 (Lebedev-50)
Angular grid pruning method      GridPruning ... 4 (adaptive)
Weight generation scheme         WeightScheme... Becke
Basis function cutoff            BFCut       ... 1.0000e-11
Integration weight cutoff        WCut        ... 1.0000e-14
Angular grids for H and He will be reduced by one unit
Partially contracted basis set               ... on
Rotationally invariant grid construction     ... off

Total number of grid points                  ...     2534
Total number of batches                      ...       43
Average number of points per batch           ...       58
Average number of grid points per atom       ...      507
UseSFitting                                  ... on

GRIDX 2
-------
General Integration Accuracy     IntAcc      ... 4.020
Radial Grid Type                 RadialGrid  ... OptM3 with GC (2021)
Angular Grid (max. ang.)         AngularGrid ... 2 (Lebedev-110)
Angular grid pruning method      GridPruning ... 4 (adaptive)
Weight generation scheme         WeightScheme... Becke
Basis function cutoff            BFCut       ... 1.0000e-11
Integration weight cutoff        WCut        ... 1.0000e-14
Angular grids for H and He will be reduced by one unit
Partially contracted basis set               ... on
Rotationally invariant grid construction     ... off

Total number of grid points                  ...     5102
Total number of batches                      ...       81
Average number of points per batch           ...       62
Average number of grid points per atom       ...     1020
UseSFitting                                  ... on

GRIDX 3
-------
General Integration Accuracy     IntAcc      ... 4.338
Radial Grid Type                 RadialGrid  ... OptM3 with GC (2021)
Angular Grid (max. ang.)         AngularGrid ... 3 (Lebedev-194)
Angular grid pruning method      GridPruning ... 4 (adaptive)
Weight generation scheme         WeightScheme... Becke
Basis function cutoff            BFCut       ... 1.0000e-11
Integration weight cutoff        WCut        ... 1.0000e-14
Angular grids for H and He will be reduced by one unit
Partially contracted basis set               ... on
Rotationally invariant grid construction     ... off

Total number of grid points                  ...    11208
Total number of batches                      ...      177
Average number of points per batch           ...       63
Average number of grid points per atom       ...     2242
UseSFitting                                  ... on

Time for X-Grid setup             =    0.059 sec

--------------
SCF ITERATIONS
--------------
ITER       Energy         Delta-E        Max-DP      RMS-DP      [F,P]     Damp
               ***  Starting incremental Fock matrix formation  ***
                      *** Initiating the SOSCF procedure ***
                      *** Re-Reading the Fockian *** 
                      *** Removing any level shift *** 
ITER      Energy       Delta-E        Grad      Rot      Max-DP    RMS-DP
  0    -40.45189547 -40.4518954651  0.002652  0.002652  0.004864  0.000303
               *** Restarting incremental Fock matrix formation ***
  1    -40.45192178  -0.0000263145  0.000869  0.000721  0.002691  0.000133
  2    -40.45192148   0.0000003005  0.000573  0.000402  0.000964  0.000067
  3    -40.45192444  -0.0000029643  0.000013  0.000012  0.000032  0.000002
                 **** Energy Check signals convergence ****
              ***Rediagonalizing the Fockian in SOSCF/NRSCF***

               *****************************************************
               *                     SUCCESS                       *
               *           SCF CONVERGED AFTER   4 CYCLES          *
               *****************************************************

Old exchange energy                            =     -1.311880900 Eh
New exchange energy                            =     -1.311878247 Eh
Exchange energy change after final integration =      0.000002653 Eh
Total energy after final integration           =    -40.451921786 Eh
Final COS-X integration done in                =     0.129 sec
Total Energy       :          -40.45192179 Eh           -1100.75275 eV
  Last Energy change         ...    4.4221e-09  Tolerance :   1.0000e-08
  Last MAX-Density change    ...    4.4409e-16  Tolerance :   1.0000e-07
             **** THE GBW FILE WAS UPDATED (methane.gbw) ****
             **** DENSITY methane.scfp WAS UPDATED ****
             **** ENERGY FILE WAS UPDATED (methane.en.tmp) ****
             **** THE GBW FILE WAS UPDATED (methane.gbw) ****
             **** DENSITY methane.scfp WAS UPDATED ****
Total SCF time: 0 days 0 hours 0 min 1 sec 

Maximum memory used throughout the entire SCF-calculation: 44.0 MB

-------------------------   --------------------
FINAL SINGLE POINT ENERGY       -40.451921786121
-------------------------   --------------------

------------------------------------------------------------------------------
                         ORCA SCF GRADIENT CALCULATION
------------------------------------------------------------------------------

 ... reading COSX grid (gridx3)
Gradient of the Kohn-Sham DFT energy:
Kohn-Sham wavefunction type      ... RKS
Hartree-Fock exchange scaling    ...    0.200
Number of operators              ...    1
Number of atoms                  ...    5
Basis set dimensions             ...   34
Integral neglect threshold       ... 2.5e-11
Integral primitive cutoff        ... 2.5e-12
SHARK Integral package           ... ON

Nuc. rep. gradient       (SHARK) ... done (  0.0 sec)
HCore & Overlap gradient (SHARK) ... done (  0.0 sec)
RI-J gradient            (SHARK) ... done (  0.0 sec)
COSX-gradient                    ... done (  0.2 sec)
Exchange-correlation gradient    ... done

------------------
CARTESIAN GRADIENT
------------------

   1   C   :   -0.000033477    0.000008893   -0.000014081
   2   H   :   -0.000037856    0.000010171   -0.000026279
   3   H   :   -0.000012619   -0.000021283    0.000021034
   4   H   :   -0.000002874    0.000036801    0.000008962
   5   H   :    0.000021716   -0.000005148   -0.000015137

Difference to translation invariance:
           :   -0.0000651099    0.0000294344   -0.0000255012

Difference to rotation invariance:
           :   -0.0000995396   -0.0002900117   -0.0000546729

Norm of the cartesian gradient     ...    0.0000827637
RMS gradient                       ...    0.0000213695
MAX gradient                       ...    0.0000378555

-------
TIMINGS
-------

Total SCF gradient time            ...        0.478 sec

One electron gradient       ....       0.004 sec  (  0.7%)
RI-J Coulomb gradient       ....       0.045 sec  (  9.3%)
COSX gradient               ....       0.165 sec  ( 34.5%)
XC gradient                 ....       0.144 sec  ( 30.0%)

Maximum memory used throughout the entire SCFGRAD-calculation: 33.6 MB
------------------------------------------------------------------------------
                         ORCA GEOMETRY RELAXATION STEP
------------------------------------------------------------------------------

Reading the OPT-File                    .... done
Getting information on internals        .... done
Copying old internal coords+grads       .... done
Making the new internal coordinates     .... (new redundants).... done
Validating the new internal coordinates .... (new redundants).... done
Calculating the B-matrix                .... done
Calculating the G,G- and P matrices     .... done
Transforming gradient to internals      .... done
Projecting the internal gradient        .... done
Number of atoms                         ....   5
Number of internal coordinates          ....  10
Current Energy                          ....   -40.451921786 Eh
Current gradient norm                   ....     0.000082764 Eh/bohr
Maximum allowed component of the step   ....  0.300
Current trust radius                    ....  0.300
Updating the Hessian (BFGS)             .... done
Forming the augmented Hessian           .... done
Diagonalizing the augmented Hessian     .... done
Last element of RFO vector              ....  0.999999978
Lowest eigenvalues of augmented Hessian:
 -0.000000015  0.290094826  0.290101781  0.290104591  0.290106222
Length of the computed step             ....  0.000208070
The final length of the internal step   ....  0.000208070
Converting the step to cartesian space:
 Initial RMS(Int)=    0.0000657974
Transforming coordinates:
 Iter   0:  RMS(Cart)=    0.0000536165 RMS(Int)=    0.0000657975
 Iter   1:  RMS(Cart)=    0.0000000009 RMS(Int)=    0.0000000010
done
Storing new coordinates                 .... done

                                .--------------------.
          ----------------------|Geometry convergence|-------------------------
          Item                value                   Tolerance       Converged
          ---------------------------------------------------------------------
          Energy change      -0.0001397208            0.0000050000      NO
          RMS gradient        0.0000229310            0.0001000000      YES
          MAX gradient        0.0000361252            0.0003000000      YES
          RMS step            0.0000657974            0.0020000000      YES
          MAX step            0.0001018340            0.0040000000      YES
          ........................................................
          Max(Bonds)      0.0001      Max(Angles)    0.00
          Max(Dihed)        0.00      Max(Improp)    0.00
          ---------------------------------------------------------------------

       Everything but the energy has converged. However, the energy
       appears to be close enough to convergence to make sure that the
       final evaluation at the new geometry represents the equilibrium energy.
       Convergence will therefore be signaled now


                    ***********************HURRAY********************
                    ***        THE OPTIMIZATION HAS CONVERGED     ***
                    *************************************************


    ---------------------------------------------------------------------------
                         Redundant Internal Coordinates

                          --- Optimized Parameters ---  
                            (Angstroem and degrees)

        Definition                    OldVal   dE/dq     Step     FinalVal
    ----------------------------------------------------------------------------
     1. B(H   1,C   0)                1.0995 -0.000033  0.0000    1.0996   
     2. B(H   2,C   0)                1.0996 -0.000036  0.0001    1.0996   
     3. B(H   3,C   0)                1.0995 -0.000035  0.0001    1.0996   
     4. B(H   4,C   0)                1.0996 -0.000036  0.0001    1.0996   
     5. A(H   1,C   0,H   3)          109.47 -0.000003    0.00    109.47   
     6. A(H   2,C   0,H   3)          109.47  0.000001   -0.00    109.47   
     7. A(H   1,C   0,H   4)          109.47 -0.000008    0.00    109.47   
     8. A(H   2,C   0,H   4)          109.47  0.000010   -0.00    109.47   
     9. A(H   3,C   0,H   4)          109.47  0.000010   -0.00    109.46   
    10. A(H   1,C   0,H   2)          109.47 -0.000010    0.00    109.48   
    ----------------------------------------------------------------------------
                 *******************************************************
                 *** FINAL ENERGY EVALUATION AT THE STATIONARY POINT ***
                 ***               (AFTER    2 CYCLES)               ***
                 *******************************************************
---------------------------------
CARTESIAN COORDINATES (ANGSTROEM)
---------------------------------
  C     -6.070577    2.534338    0.000016
  H     -5.248482    2.279071    0.684178
  H     -5.739102    3.319826   -0.694457
  H     -6.363822    1.640968   -0.570076
  H     -6.931106    2.897475    0.580355

----------------------------
CARTESIAN COORDINATES (A.U.)
----------------------------
  NO LB      ZA    FRAG     MASS         X           Y           Z
   0 C     6.0000    0    12.011  -11.471729    4.789204    0.000031
   1 H     1.0000    0     1.008   -9.918194    4.306820    1.292909
   2 H     1.0000    0     1.008  -10.845331    6.273561   -1.312334
   3 H     1.0000    0     1.008  -12.025881    3.100980   -1.077288
   4 H     1.0000    0     1.008  -13.097893    5.475435    1.096713

--------------------------------
INTERNAL COORDINATES (ANGSTROEM)
--------------------------------
 C      0   0   0     0.000000000000     0.00000000     0.00000000
 H      1   0   0     1.099580916358     0.00000000     0.00000000
 H      1   2   0     1.099618665227   109.47608466     0.00000000
 H      1   2   3     1.099594204887   109.47283289   120.00242874
 H      1   2   3     1.099623634283   109.47354257   239.99690524

---------------------------
INTERNAL COORDINATES (A.U.)
---------------------------
 C      0   0   0     0.000000000000     0.00000000     0.00000000
 H      1   0   0     2.077906794002     0.00000000     0.00000000
 H      1   2   0     2.077978129027   109.47608466     0.00000000
 H      1   2   3     2.077931905683   109.47283289   120.00242874
 H      1   2   3     2.077987519182   109.47354257   239.99690524

---------------------
BASIS SET INFORMATION
---------------------
There are 2 groups of distinct atoms

 Group   1 Type C   : 7s4p1d contracted to 3s2p1d pattern {511/31/1}
 Group   2 Type H   : 4s1p contracted to 2s1p pattern {31/1}

Atom   0C    basis set group =>   1
Atom   1H    basis set group =>   2
Atom   2H    basis set group =>   2
Atom   3H    basis set group =>   2
Atom   4H    basis set group =>   2
---------------------------------
AUXILIARY/J BASIS SET INFORMATION
---------------------------------
There are 2 groups of distinct atoms

 Group   1 Type C   : 12s5p4d2f1g contracted to 6s4p3d1f1g pattern {711111/2111/211/2/1}
 Group   2 Type H   : 5s2p1d contracted to 3s1p1d pattern {311/2/1}

Atom   0C    basis set group =>   1
Atom   1H    basis set group =>   2
Atom   2H    basis set group =>   2
Atom   3H    basis set group =>   2
Atom   4H    basis set group =>   2
------------------------------------------------------------------------------
                           ORCA GTO INTEGRAL CALCULATION
                           -- RI-GTO INTEGRALS CHOSEN --
------------------------------------------------------------------------------
------------------------------------------------------------------------------
                   ___                                                        
                  /   \      - P O W E R E D   B Y -                         
                 /     \                                                     
                 |  |  |   _    _      __       _____    __    __             
                 |  |  |  | |  | |    /  \     |  _  \  |  |  /  |          
                  \  \/   | |  | |   /    \    | | | |  |  | /  /          
                 / \  \   | |__| |  /  /\  \   | |_| |  |  |/  /          
                |  |  |   |  __  | /  /__\  \  |    /   |      \           
                |  |  |   | |  | | |   __   |  |    \   |  |\   \          
                \     /   | |  | | |  |  |  |  | |\  \  |  | \   \       
                 \___/    |_|  |_| |__|  |__|  |_| \__\ |__|  \__/        
                                                                              
                      - O R C A' S   B I G   F R I E N D -                    
                                      &                                       
                       - I N T E G R A L  F E E D E R -                       
                                                                              
 v1 FN, 2020, v2 2021                                                         
------------------------------------------------------------------------------


Reading SHARK input file methane.SHARKINP.tmp ... ok
----------------------
SHARK INTEGRAL PACKAGE
----------------------

Number of atoms                             ...      5
Number of basis functions                   ...     34
Number of shells                            ...     18
Maximum angular momentum                    ...      2
Integral batch strategy                     ... SHARK/LIBINT Hybrid
RI-J (if used) integral strategy            ... SPLIT-RIJ (Revised 2003 algorithm where possible)
Printlevel                                  ...      1
Contraction scheme used                     ... SEGMENTED contraction
Coulomb Range Separation                    ... NOT USED
Exchange Range Separation                   ... NOT USED
Finite Nucleus Model                        ... NOT USED
Auxiliary Coulomb fitting basis             ... AVAILABLE
   # of basis functions in Aux-J            ...     93
   # of shells in Aux-J                     ...     35
   Maximum angular momentum in Aux-J        ...      4
Auxiliary J/K fitting basis                 ... NOT available
Auxiliary Correlation fitting basis         ... NOT available
Auxiliary 'external' fitting basis          ... NOT available
Integral threshold                          ...     2.500000e-11
Primitive cut-off                           ...     2.500000e-12
Primitive pair pre-selection threshold      ...     2.500000e-12

Calculating pre-screening integrals         ... done (  0.0 sec) Dimension = 18
Organizing shell pair data                  ... done (  0.0 sec)
Shell pair information
Total number of shell pairs                 ...       171
Shell pairs after pre-screening             ...       171
Total number of primitive shell pairs       ...       553
Primitive shell pairs kept                  ...       535
          la=0 lb=0:     66 shell pairs
          la=1 lb=0:     66 shell pairs
          la=1 lb=1:     21 shell pairs
          la=2 lb=0:     11 shell pairs
          la=2 lb=1:      6 shell pairs
          la=2 lb=2:      1 shell pairs

Calculating one electron integrals          ... done (  0.0 sec)
Calculating RI/J V-Matrix + Cholesky decomp.... done (  0.0 sec)
Calculating Nuclear repulsion               ... done (  0.0 sec) ENN=     13.318039485958 Eh

SHARK setup successfully completed in   0.1 seconds

Maximum memory used throughout the entire GTOINT-calculation: 8.8 MB
-------------------------------------------------------------------------------
                                 ORCA SCF
-------------------------------------------------------------------------------

------------
SCF SETTINGS
------------
Hamiltonian:
 Density Functional     Method          .... DFT(GTOs)
 Exchange Functional    Exchange        .... B88
   X-Alpha parameter    XAlpha          ....  0.666667
   Becke's b parameter  XBeta           ....  0.004200
 Correlation Functional Correlation     .... LYP
 LDA part of GGA corr.  LDAOpt          .... VWN-5
 Gradients option       PostSCFGGA      .... off
 Hybrid DFT is turned on
   Fraction HF Exchange ScalHFX         ....  0.200000
   Scaling of DF-GGA-X  ScalDFX         ....  0.720000
   Scaling of DF-GGA-C  ScalDFC         ....  0.810000
   Scaling of DF-LDA-C  ScalLDAC        ....  1.000000
   Perturbative correction              ....  0.000000
   Density functional embedding theory  .... OFF
   NL short-range parameter             ....  4.800000
 RI-approximation to the Coulomb term is turned on
   Number of AuxJ basis functions       .... 93
   RIJ-COSX (HFX calculated with COS-X)).... on


General Settings:
 Integral files         IntName         .... methane
 Hartree-Fock type      HFTyp           .... RHF
 Total Charge           Charge          ....    0
 Multiplicity           Mult            ....    1
 Number of Electrons    NEL             ....   10
 Basis Dimension        Dim             ....   34
 Nuclear Repulsion      ENuc            ....     13.3180394860 Eh

Convergence Acceleration:
 DIIS                   CNVDIIS         .... on
   Start iteration      DIISMaxIt       ....    12
   Startup error        DIISStart       ....  0.200000
   # of expansion vecs  DIISMaxEq       ....     5
   Bias factor          DIISBfac        ....   1.050
   Max. coefficient     DIISMaxC        ....  10.000
 Trust-Rad. Augm. Hess. CNVTRAH         .... auto
   Auto Start mean grad. ratio tolernc. ....  1.125000
   Auto Start start iteration           ....     1
   Auto Start num. interpolation iter.  ....    10
   Max. Number of Micro iterations      ....    16
   Max. Number of Macro iterations      .... Maxiter - #DIIS iter
   Number of Davidson start vectors     ....     2
   Converg. threshold I  (grad. norm)   ....   1.000e-05
   Converg. threshold II (energy diff.) ....   1.000e-08
   Grad. Scal. Fac. for Micro threshold ....   0.100
   Minimum threshold for Micro iter.    ....   0.010
   NR start threshold (gradient norm)   ....   0.001
   Initial trust radius                 ....   0.400
   Minimum AH scaling param. (alpha)    ....   1.000
   Maximum AH scaling param. (alpha)    .... 1000.000
   Orbital update algorithm             .... Taylor
   White noise on init. David. guess    .... on
   Maximum white noise                  ....   0.010
   Quad. conv. algorithm                .... NR
 SOSCF                  CNVSOSCF        .... on
   Start iteration      SOSCFMaxIt      ....   150
   Startup grad/error   SOSCFStart      ....  0.003300
 Level Shifting         CNVShift        .... on
   Level shift para.    LevelShift      ....    0.2500
   Turn off err/grad.   ShiftErr        ....    0.0010
 Zerner damping         CNVZerner       .... off
 Static damping         CNVDamp         .... on
   Fraction old density DampFac         ....    0.7000
   Max. Damping (<1)    DampMax         ....    0.9800
   Min. Damping (>=0)   DampMin         ....    0.0000
   Turn off err/grad.   DampErr         ....    0.1000
 Fernandez-Rico         CNVRico         .... off

SCF Procedure:
 Maximum # iterations   MaxIter         ....   125
 SCF integral mode      SCFMode         .... Direct
   Integral package                     .... SHARK and LIBINT hybrid scheme
 Reset frequency        DirectResetFreq ....    20
 Integral Threshold     Thresh          ....  2.500e-11 Eh
 Primitive CutOff       TCut            ....  2.500e-12 Eh

Convergence Tolerance:
 Convergence Check Mode ConvCheckMode   .... Total+1el-Energy
 Convergence forced     ConvForced      .... 0
 Energy Change          TolE            ....  1.000e-08 Eh
 1-El. energy change                    ....  1.000e-05 Eh
 Orbital Gradient       TolG            ....  1.000e-05
 Orbital Rotation angle TolX            ....  1.000e-05
 DIIS Error             TolErr          ....  5.000e-07


Diagonalization of the overlap matrix:
Smallest eigenvalue                        ... 1.429e-02
Time for diagonalization                   ...    0.001 sec
Threshold for overlap eigenvalues          ... 1.000e-08
Number of eigenvalues below threshold      ... 0
Time for construction of square roots      ...    0.000 sec
Total time needed                          ...    0.001 sec

---------------------
INITIAL GUESS: MOREAD
---------------------
Guess MOs are being read from file: methane.gbw
Input Geometry matches current geometry (good)
Input basis set matches current basis set (good)
MOs were renormalized
MOs were reorthogonalized (Cholesky)
                      ------------------
                      INITIAL GUESS DONE (   0.0 sec)
                      ------------------
-------------------
DFT GRID GENERATION
-------------------

General Integration Accuracy     IntAcc      ... 4.388
Radial Grid Type                 RadialGrid  ... OptM3 with GC (2021)
Angular Grid (max. ang.)         AngularGrid ... 4 (Lebedev-302)
Angular grid pruning method      GridPruning ... 4 (adaptive)
Weight generation scheme         WeightScheme... Becke
Basis function cutoff            BFCut       ... 1.0000e-11
Integration weight cutoff        WCut        ... 1.0000e-14
Angular grids for H and He will be reduced by one unit
Partially contracted basis set               ... off
Rotationally invariant grid construction     ... off

Total number of grid points                  ...    19266
Total number of batches                      ...      304
Average number of points per batch           ...       63
Average number of grid points per atom       ...     3853
Time for grid setup =    0.090 sec

--------------------
COSX GRID GENERATION
--------------------

GRIDX 1
-------
General Integration Accuracy     IntAcc      ... 3.816
Radial Grid Type                 RadialGrid  ... OptM3 with GC (2021)
Angular Grid (max. ang.)         AngularGrid ... 1 (Lebedev-50)
Angular grid pruning method      GridPruning ... 4 (adaptive)
Weight generation scheme         WeightScheme... Becke
Basis function cutoff            BFCut       ... 1.0000e-11
Integration weight cutoff        WCut        ... 1.0000e-14
Angular grids for H and He will be reduced by one unit
Partially contracted basis set               ... on
Rotationally invariant grid construction     ... off

Total number of grid points                  ...     2534
Total number of batches                      ...       43
Average number of points per batch           ...       58
Average number of grid points per atom       ...      507
UseSFitting                                  ... on

GRIDX 2
-------
General Integration Accuracy     IntAcc      ... 4.020
Radial Grid Type                 RadialGrid  ... OptM3 with GC (2021)
Angular Grid (max. ang.)         AngularGrid ... 2 (Lebedev-110)
Angular grid pruning method      GridPruning ... 4 (adaptive)
Weight generation scheme         WeightScheme... Becke
Basis function cutoff            BFCut       ... 1.0000e-11
Integration weight cutoff        WCut        ... 1.0000e-14
Angular grids for H and He will be reduced by one unit
Partially contracted basis set               ... on
Rotationally invariant grid construction     ... off

Total number of grid points                  ...     5102
Total number of batches                      ...       81
Average number of points per batch           ...       62
Average number of grid points per atom       ...     1020
UseSFitting                                  ... on

GRIDX 3
-------
General Integration Accuracy     IntAcc      ... 4.338
Radial Grid Type                 RadialGrid  ... OptM3 with GC (2021)
Angular Grid (max. ang.)         AngularGrid ... 3 (Lebedev-194)
Angular grid pruning method      GridPruning ... 4 (adaptive)
Weight generation scheme         WeightScheme... Becke
Basis function cutoff            BFCut       ... 1.0000e-11
Integration weight cutoff        WCut        ... 1.0000e-14
Angular grids for H and He will be reduced by one unit
Partially contracted basis set               ... on
Rotationally invariant grid construction     ... off

Total number of grid points                  ...    11208
[...]
      py      :     0.030103
  4 H s       :     0.909296  s :     0.909296
      pz      :     0.019692  p :     0.063560
      px      :     0.028800
      py      :     0.015067


                      *****************************
                      * MAYER POPULATION ANALYSIS *
                      *****************************

  NA   - Mulliken gross atomic population
  ZA   - Total nuclear charge
  QA   - Mulliken gross atomic charge
  VA   - Mayer's total valence
  BVA  - Mayer's bonded valence
  FA   - Mayer's free valence

  ATOM       NA         ZA         QA         VA         BVA        FA
  0 C      6.1149     6.0000    -0.1149     3.9947     3.9947    -0.0000
  1 H      0.9713     1.0000     0.0287     0.9913     0.9913    -0.0000
  2 H      0.9713     1.0000     0.0287     0.9913     0.9913     0.0000
  3 H      0.9713     1.0000     0.0287     0.9913     0.9913    -0.0000
  4 H      0.9713     1.0000     0.0287     0.9913     0.9913    -0.0000

  Mayer bond orders larger than 0.100000
B(  0-C ,  1-H ) :   0.9987 B(  0-C ,  2-H ) :   0.9987 B(  0-C ,  3-H ) :   0.9987 
B(  0-C ,  4-H ) :   0.9987 

-------
TIMINGS
-------

Total SCF time: 0 days 0 hours 0 min 0 sec 

Total time                  ....       0.888 sec
Sum of individual times     ....       0.815 sec  ( 91.8%)

Fock matrix formation       ....       0.670 sec  ( 75.5%)
  Split-RI-J                ....       0.096 sec  ( 14.3% of F)
  Chain of spheres X        ....       0.385 sec  ( 57.4% of F)
  XC integration            ....       0.198 sec  ( 29.5% of F)
    Basis function eval.    ....       0.076 sec  ( 38.4% of XC)
    Density eval.           ....       0.023 sec  ( 11.8% of XC)
    XC-Functional eval.     ....       0.057 sec  ( 28.8% of XC)
    XC-Potential eval.      ....       0.023 sec  ( 11.8% of XC)
Diagonalization             ....       0.000 sec  (  0.0%)
Density matrix formation    ....       0.000 sec  (  0.0%)
Population analysis         ....       0.001 sec  (  0.1%)
Initial guess               ....       0.000 sec  (  0.1%)
Orbital Transformation      ....       0.000 sec  (  0.0%)
Orbital Orthonormalization  ....       0.000 sec  (  0.0%)
DIIS solution               ....       0.000 sec  (  0.0%)
SOSCF solution              ....       0.000 sec  (  0.0%)
Grid generation             ....       0.143 sec  ( 16.1%)

Maximum memory used throughout the entire SCF-calculation: 44.0 MB

-------------------------   --------------------
FINAL SINGLE POINT ENERGY       -40.451921802375
-------------------------   --------------------

                                *** OPTIMIZATION RUN DONE ***

                            ***************************************
                            *     ORCA property calculations      *
                            ***************************************

                                    ---------------------
                                    Active property flags
                                    ---------------------
   (+) Dipole Moment


------------------------------------------------------------------------------
                       ORCA ELECTRIC PROPERTIES CALCULATION
------------------------------------------------------------------------------

Dipole Moment Calculation                       ... on
Quadrupole Moment Calculation                   ... off
Polarizability Calculation                      ... off
GBWName                                         ... methane.gbw
Electron density                                ... methane.scfp
The origin for moment calculation is the CENTER OF MASS  = (-11.471753,  4.789203  0.000023)

-------------
DIPOLE MOMENT
-------------
                                X             Y             Z
Electronic contribution:      0.00015      -0.00006       0.00005
Nuclear contribution   :     -0.00014      -0.00001      -0.00005
                        -----------------------------------------
Total Dipole Moment    :      0.00001      -0.00006      -0.00000
                        -----------------------------------------
Magnitude (a.u.)       :      0.00006
Magnitude (Debye)      :      0.00016



--------------------
Rotational spectrum 
--------------------
 
Rotational constants in cm-1:     5.186879     5.186807     5.186543 
Rotational constants in MHz : 155498.709355 155496.572386 155488.653598 

 Dipole components along the rotational axes: 
x,y,z [a.u.] :    -0.000037    -0.000015    -0.000051 
x,y,z [Debye]:    -0.000094    -0.000039    -0.000129 

 

-------------------------------------------------------------------------------
                               ORCA SCF HESSIAN
-------------------------------------------------------------------------------

                   --------- SHARK INITIALIZATION DONE ---------

Hessian of the Kohn-Sham DFT energy:
Kohn-Sham wavefunction type                      ... RKS
Hartree-Fock exchange scaling                    ...    0.200
Number of operators                              ...    1
Number of atoms                                  ...    5
Basis set dimensions                             ...   34
Integral neglect threshold                       ... 2.5e-11
Integral primitive cutoff                        ... 2.5e-12

Setting up DFT Hessian calculations              ... 

HESS GRID
---------

General Integration Accuracy     IntAcc      ... 4.629
Radial Grid Type                 RadialGrid  ... OptM3 with GC (2021)
Angular Grid (max. ang.)         AngularGrid ... 5 (Lebedev-434)
Angular grid pruning method      GridPruning ... 4 (adaptive)
Weight generation scheme         WeightScheme... Becke
Basis function cutoff            BFCut       ... 1.0000e-11
Integration weight cutoff        WCut        ... 1.0000e-14
Angular grids for H and He will be reduced by one unit
Partially contracted basis set               ... off
Rotationally invariant grid construction     ... off

Total number of grid points                  ...    30070
Total number of batches                      ...      473
Average number of points per batch           ...       63
Average number of grid points per atom       ...     6014

Building densities                               ... done   (      0.0 sec)
Calculating rho(r) on the grid                   ... done   (      0.0 sec)
Building xc-kernel on the grid                   ... done   (      0.0 sec)
                                                     done   (      0.2 sec)

Nuclear repulsion Hessian  (SHARK)               ... done   (      0.0 sec)

----------------------------------------------
Forming right-hand sides of CP-SCF equations     ...
----------------------------------------------
One electron integral derivatives  (SHARK)       ... done   (      0.0 sec)
Transforming the overlap derivative matrices     ... done   (      0.0 sec)
Making the Q(x) pseudodensities                  ... done   (      0.0 sec)
Adding the E*S(x)*S(y) terms to the Hessian      ... done   (      0.0 sec)
Calculating energy weighted overlap derivatives  ... done   (      0.0 sec)
Two electron integral derivatives (SHARK-RI)     ... done   (      0.1 sec)
Exchange-correlation integral derivatives        ... done   (      1.1 sec)
tr(F(y)Q(x)) contribution to the Hessian         ... done   (      0.0 sec)
Response fock operator R(S(x)) (SHARK-RIJCOSX)   ... done   (      0.2 sec)
XC Response fock operator R(S(x))                ... done   (      0.3 sec)
tr(F(y)S(x)) contribution to the Hessian         ... done   (      0.0 sec)
Transforming and finalizing RHSs                 ... done   (      0.0 sec)

----------------------------------------------
Solving the CP-SCF equations (RIJCOSX)           ...
----------------------------------------------
     CP-SCF ITERATION   0:   5.6554e-02 (   0.2 sec   0/ 15 done)
     CP-SCF ITERATION   1:   8.1048e-03 (   0.2 sec   0/ 15 done)
     CP-SCF ITERATION   2:   1.2596e-03 (   0.2 sec   0/ 15 done)
     CP-SCF ITERATION   3:   7.0275e-05 (   0.1 sec  15/ 15 done)
                    *** THE CP-SCF HAS CONVERGED ***

                                                 ... done   (      0.7 sec)
Forming perturbed density Hessian contributions  ... done   (      0.0 sec)
2nd integral derivative contribs (SHARK-RI)      ... done   (      0.4 sec)
Exchange-correlation Hessian                     ... done   (      1.2 sec)
Dipole derivatives                               ... (center of mass: -11.471753,  4.789203  0.000023)done   (      0.1 sec)

Total SCF Hessian time: 0 days 0 hours 0 min 4 sec 

Writing the Hessian file to the disk             ... done


Maximum memory used throughout the entire SCFHESS-calculation: 53.3 MB

-----------------------
VIBRATIONAL FREQUENCIES
-----------------------

Scaling factor for frequencies =  1.000000000  (already applied!)

   0:         0.00 cm**-1
   1:         0.00 cm**-1
   2:         0.00 cm**-1
   3:         0.00 cm**-1
   4:         0.00 cm**-1
   5:         0.00 cm**-1
   6:      1313.45 cm**-1
   7:      1313.68 cm**-1
   8:      1313.73 cm**-1
   9:      1530.79 cm**-1
  10:      1531.05 cm**-1
  11:      3019.38 cm**-1
  12:      3152.03 cm**-1
  13:      3152.33 cm**-1
  14:      3152.45 cm**-1


------------
NORMAL MODES
------------

These modes are the Cartesian displacements weighted by the diagonal matrix
M(i,i)=1/sqrt(m[i]) where m[i] is the mass of the displaced atom
Thus, these vectors are normalized but *not* orthogonal

                  0          1          2          3          4          5    
      0       0.000000   0.000000   0.000000   0.000000   0.000000   0.000000
      1       0.000000   0.000000   0.000000   0.000000   0.000000   0.000000
      2       0.000000   0.000000   0.000000   0.000000   0.000000   0.000000
      3       0.000000   0.000000   0.000000   0.000000   0.000000   0.000000
      4       0.000000   0.000000   0.000000   0.000000   0.000000   0.000000
      5       0.000000   0.000000   0.000000   0.000000   0.000000   0.000000
      6       0.000000   0.000000   0.000000   0.000000   0.000000   0.000000
      7       0.000000   0.000000   0.000000   0.000000   0.000000   0.000000
      8       0.000000   0.000000   0.000000   0.000000   0.000000   0.000000
      9       0.000000   0.000000   0.000000   0.000000   0.000000   0.000000
     10       0.000000   0.000000   0.000000   0.000000   0.000000   0.000000
     11       0.000000   0.000000   0.000000   0.000000   0.000000   0.000000
     12       0.000000   0.000000   0.000000   0.000000   0.000000   0.000000
     13       0.000000   0.000000   0.000000   0.000000   0.000000   0.000000
     14       0.000000   0.000000   0.000000   0.000000   0.000000   0.000000
                  6          7          8          9         10         11    
      0      -0.010508  -0.107734   0.060780  -0.000067   0.000014   0.000038
      1       0.072036  -0.054920  -0.084891  -0.000032   0.000003  -0.000109
      2       0.100559   0.028085   0.067157   0.000016  -0.000010   0.000012
      3       0.211607   0.311478   0.156327  -0.276271   0.183879   0.373400
      4      -0.400119   0.333076   0.272503   0.150859   0.462356  -0.115955
      5      -0.355449  -0.313812   0.049440   0.388221  -0.048399   0.310777
      6       0.025210   0.371614  -0.439963  -0.071143   0.471304   0.150949
      7      -0.411708  -0.093850   0.070707  -0.310598  -0.161177   0.357639
      8      -0.434691   0.182931  -0.024192  -0.385202   0.042625  -0.316242
      9       0.213591   0.435150  -0.322567   0.096270  -0.472327  -0.133129
     10       0.144978  -0.003004   0.330466   0.241231   0.163738  -0.405670
     11      -0.172929  -0.308518  -0.379139  -0.427499  -0.013616  -0.258885
     12      -0.325198   0.165483  -0.118033   0.251942  -0.183026  -0.391678
     13      -0.191510   0.418185   0.337856  -0.081114  -0.464954   0.165283
     14      -0.235164   0.104750  -0.446335   0.424285   0.019506   0.264201
                 12         13         14    
      0       0.039746  -0.015430  -0.082630
      1       0.011767   0.091519  -0.011429
      2      -0.083229   0.005567  -0.041080
      3       0.181614   0.204826   0.583825
      4      -0.052383  -0.049109  -0.187510
      5       0.131735   0.173501   0.490459
      6      -0.200853  -0.165154   0.006545
      7      -0.489795  -0.369960   0.046311
      8       0.420841   0.341497  -0.049473
      9       0.064527  -0.186807   0.118615
     10       0.178254  -0.545966   0.401419
     11       0.098602  -0.357273   0.250563
     12      -0.518884   0.330990   0.275601
     13       0.223710  -0.125474  -0.124037
     14       0.340554  -0.224062  -0.202058


-----------
IR SPECTRUM
-----------

 Mode   freq       eps      Int      T**2         TX        TY        TZ
       cm**-1   L/(mol*cm) km/mol    a.u.
----------------------------------------------------------------------------
  6:   1313.45   0.002632   13.30  0.000625  ( 0.002118 -0.014515 -0.020255)
  7:   1313.68   0.002622   13.25  0.000623  ( 0.021651  0.011056 -0.005644)
  8:   1313.73   0.002622   13.25  0.000623  (-0.012232  0.017038 -0.013522)
  9:   1530.79   0.000000    0.00  0.000000  (-0.000044 -0.000025  0.000002)
 10:   1531.05   0.000000    0.00  0.000000  (-0.000013 -0.000012 -0.000009)
 11:   3019.38   0.000000    0.00  0.000000  ( 0.000013 -0.000036  0.000003)
 12:   3152.03   0.003500   17.69  0.000346  ( 0.007942  0.002399 -0.016663)
 13:   3152.33   0.003491   17.64  0.000346  (-0.003087  0.018295  0.001150)
 14:   3152.45   0.003490   17.64  0.000345  (-0.016527 -0.002264 -0.008198)

* The epsilon (eps) is given for a Dirac delta lineshape.
** The dipole moment derivative (T) already includes vibrational overlap.

The first frequency considered to be a vibration is 6
The total number of vibrations considered is 9


--------------------------
THERMOCHEMISTRY AT 298.15K
--------------------------

Temperature         ... 298.15 K
Pressure            ... 1.00 atm
Total Mass          ... 16.04 AMU

Throughout the following assumptions are being made:
  (1) The electronic state is orbitally nondegenerate
  (2) There are no thermally accessible electronically excited states
  (3) Hindered rotations indicated by low frequency modes are not
      treated as such but are treated as vibrations and this may
      cause some error
  (4) All equations used are the standard statistical mechanics
      equations for an ideal gas
  (5) All vibrations are strictly harmonic

freq.    1313.45  E(vib)   ...       0.01 
freq.    1313.68  E(vib)   ...       0.01 
freq.    1313.73  E(vib)   ...       0.01 
freq.    1530.79  E(vib)   ...       0.00 
freq.    1531.05  E(vib)   ...       0.00 
freq.    3019.38  E(vib)   ...       0.00 
freq.    3152.03  E(vib)   ...       0.00 
freq.    3152.33  E(vib)   ...       0.00 
freq.    3152.45  E(vib)   ...       0.00 

------------
INNER ENERGY
------------

The inner energy is: U= E(el) + E(ZPE) + E(vib) + E(rot) + E(trans)
    E(el)   - is the total energy from the electronic structure calculation
              = E(kin-el) + E(nuc-el) + E(el-el) + E(nuc-nuc)
    E(ZPE)  - the the zero temperature vibrational energy from the frequency calculation
    E(vib)  - the the finite temperature correction to E(ZPE) due to population
              of excited vibrational states
    E(rot)  - is the rotational thermal energy
    E(trans)- is the translational thermal energy

Summary of contributions to the inner energy U:
Electronic energy                ...    -40.45192180 Eh
Zero point energy                ...      0.04437617 Eh      27.85 kcal/mol
Thermal vibrational correction   ...      0.00004043 Eh       0.03 kcal/mol
Thermal rotational correction    ...      0.00141627 Eh       0.89 kcal/mol
Thermal translational correction ...      0.00141627 Eh       0.89 kcal/mol
-----------------------------------------------------------------------
Total thermal energy                    -40.40467267 Eh


Summary of corrections to the electronic energy:
(perhaps to be used in another calculation)
Total thermal correction                  0.00287297 Eh       1.80 kcal/mol
Non-thermal (ZPE) correction              0.04437617 Eh      27.85 kcal/mol
-----------------------------------------------------------------------
Total correction                          0.04724914 Eh      29.65 kcal/mol


--------
ENTHALPY
--------

The enthalpy is H = U + kB*T
                kB is Boltzmann's constant
Total free energy                 ...    -40.40467267 Eh 
Thermal Enthalpy correction       ...      0.00094421 Eh       0.59 kcal/mol
-----------------------------------------------------------------------
Total Enthalpy                    ...    -40.40372846 Eh


Note: Rotational entropy computed according to Herzberg 
Infrared and Raman Spectra, Chapter V,1, Van Nostrand Reinhold, 1945 
Point Group:  Td, Symmetry Number:  12  
Rotational constants in cm-1:     5.186879     5.186807     5.186543 

Vibrational entropy computed according to the QRRHO of S. Grimme
Chem.Eur.J. 2012 18 9955


-------
ENTROPY
-------

The entropy contributions are T*S = T*(S(el)+S(vib)+S(rot)+S(trans))
     S(el)   - electronic entropy
     S(vib)  - vibrational entropy
     S(rot)  - rotational entropy
     S(trans)- translational entropy
The entropies will be listed as multiplied by the temperature to get
units of energy

Electronic entropy                ...      0.00000000 Eh      0.00 kcal/mol
Vibrational entropy               ...      0.00004662 Eh      0.03 kcal/mol
Rotational entropy                ...      0.00483328 Eh      3.03 kcal/mol
Translational entropy             ...      0.01627961 Eh     10.22 kcal/mol
-----------------------------------------------------------------------
Final entropy term                ...      0.02115950 Eh     13.28 kcal/mol

In case the symmetry of your molecule has not been determined correctly
or in case you have a reason to use a different symmetry number we print 
out the resulting rotational entropy values for sn=1,12 :
 --------------------------------------------------------
|  sn= 1 | S(rot)=       0.00717948 Eh      4.51 kcal/mol|
|  sn= 2 | S(rot)=       0.00652502 Eh      4.09 kcal/mol|
|  sn= 3 | S(rot)=       0.00614219 Eh      3.85 kcal/mol|
|  sn= 4 | S(rot)=       0.00587056 Eh      3.68 kcal/mol|
|  sn= 5 | S(rot)=       0.00565988 Eh      3.55 kcal/mol|
|  sn= 6 | S(rot)=       0.00548773 Eh      3.44 kcal/mol|
|  sn= 7 | S(rot)=       0.00534219 Eh      3.35 kcal/mol|
|  sn= 8 | S(rot)=       0.00521611 Eh      3.27 kcal/mol|
|  sn= 9 | S(rot)=       0.00510490 Eh      3.20 kcal/mol|
|  sn=10 | S(rot)=       0.00500542 Eh      3.14 kcal/mol|
|  sn=11 | S(rot)=       0.00491543 Eh      3.08 kcal/mol|
|  sn=12 | S(rot)=       0.00483328 Eh      3.03 kcal/mol|
 --------------------------------------------------------


-------------------
GIBBS FREE ENERGY
-------------------

The Gibbs free energy is G = H - T*S

Total enthalpy                    ...    -40.40372846 Eh 
Total entropy correction          ...     -0.02115950 Eh    -13.28 kcal/mol
-----------------------------------------------------------------------
Final Gibbs free energy         ...    -40.42488796 Eh

For completeness - the Gibbs free energy minus the electronic energy
G-E(el)                           ...      0.02703384 Eh     16.96 kcal/mol


Timings for individual modules:

Sum of individual times         ...        9.548 sec (=   0.159 min)
GTO integral calculation        ...        0.363 sec (=   0.006 min)   3.8 %
SCF iterations                  ...        3.470 sec (=   0.058 min)  36.3 %
SCF Gradient evaluation         ...        1.002 sec (=   0.017 min)  10.5 %
Geometry relaxation             ...        0.050 sec (=   0.001 min)   0.5 %
Analytical frequency calculation...        4.662 sec (=   0.078 min)  48.8 %
                             ****ORCA TERMINATED NORMALLY****
TOTAL RUN TIME: 0 days 0 hours 0 minutes 9 seconds 692 msec
