
                                 *****************
                                 * O   R   C   A *
                                 *****************

                                            #,                                       
                                            ###                                      
                                            ####                                     
                                            #####                                    
                                            ######                                   
                                           ########,                                 
                                     ,,################,,,,,                         
                               ,,#################################,,                 
                          ,,##########################################,,             
                       ,#########################################, ''#####,          
                    ,#############################################,,   '####,        
                  ,##################################################,,,,####,       
                ,###########''''           ''''###############################       
              ,#####''   ,,,,##########,,,,          '''####'''          '####       
            ,##' ,,,,###########################,,,                        '##       
           ' ,,###''''                  '''############,,,                           
         ,,##''                                '''############,,,,        ,,,,,,###''
      ,#''                                            '''#######################'''  
     '                                                          ''''####''''         
             ,#######,   #######,   ,#######,      ##                                
            ,#'     '#,  ##    ##  ,#'     '#,    #''#        ######   ,####,        
            ##       ##  ##   ,#'  ##            #'  '#       #        #'  '#        
            ##       ##  #######   ##           ,######,      #####,   #    #        
            '#,     ,#'  ##    ##  '#,     ,#' ,#      #,         ##   #,  ,#        
             '#######'   ##     ##  '#######'  #'      '#     #####' # '####'        



                  #######################################################
                  #                        -***-                        #
                  #          Department of theory and spectroscopy      #
                  #    Directorship and core code : Frank Neese         #
                  #        Max Planck Institute fuer Kohlenforschung    #
                  #                Kaiser Wilhelm Platz 1               #
                  #                 D-45470 Muelheim/Ruhr               #
                  #                      Germany                        #
                  #                                                     #
                  #                  All rights reserved                #
                  #                        -***-                        #
                  #######################################################


                         Program Version 5.0.4 -  RELEASE  -


 With contributions from (in alphabetic order):
   Daniel Aravena         : Magnetic Suceptibility
   Michael Atanasov       : Ab Initio Ligand Field Theory (pilot matlab implementation)
   Alexander A. Auer      : GIAO ZORA, VPT2 properties, NMR spectrum
   Ute Becker             : Parallelization
   Giovanni Bistoni       : ED, misc. LED, open-shell LED, HFLD
   Martin Brehm           : Molecular dynamics
   Dmytro Bykov           : SCF Hessian
   Vijay G. Chilkuri      : MRCI spin determinant printing, contributions to CSF-ICE
   Dipayan Datta          : RHF DLPNO-CCSD density
   Achintya Kumar Dutta   : EOM-CC, STEOM-CC
   Dmitry Ganyushin       : Spin-Orbit,Spin-Spin,Magnetic field MRCI
   Miquel Garcia          : C-PCM and meta-GGA Hessian, CC/C-PCM, Gaussian charge scheme
   Yang Guo               : DLPNO-NEVPT2, F12-NEVPT2, CIM, IAO-localization
   Andreas Hansen         : Spin unrestricted coupled pair/coupled cluster methods
   Benjamin Helmich-Paris : MC-RPA, TRAH-SCF, COSX integrals
   Lee Huntington         : MR-EOM, pCC
   Robert Izsak           : Overlap fitted RIJCOSX, COSX-SCS-MP3, EOM
   Marcus Kettner         : VPT2
   Christian Kollmar      : KDIIS, OOCD, Brueckner-CCSD(T), CCSD density, CASPT2, CASPT2-K
   Simone Kossmann        : Meta GGA functionals, TD-DFT gradient, OOMP2, MP2 Hessian
   Martin Krupicka        : Initial AUTO-CI
   Lucas Lang             : DCDCAS
   Marvin Lechner         : AUTO-CI (C++ implementation), FIC-MRCC
   Dagmar Lenk            : GEPOL surface, SMD
   Dimitrios Liakos       : Extrapolation schemes; Compound Job, initial MDCI parallelization
   Dimitrios Manganas     : Further ROCIS development; embedding schemes
   Dimitrios Pantazis     : SARC Basis sets
   Anastasios Papadopoulos: AUTO-CI, single reference methods and gradients
   Taras Petrenko         : DFT Hessian,TD-DFT gradient, ASA, ECA, R-Raman, ABS, FL, XAS/XES, NRVS
   Peter Pinski           : DLPNO-MP2, DLPNO-MP2 Gradient
   Christoph Reimann      : Effective Core Potentials
   Marius Retegan         : Local ZFS, SOC
   Christoph Riplinger    : Optimizer, TS searches, QM/MM, DLPNO-CCSD(T), (RO)-DLPNO pert. Triples
   Tobias Risthaus        : Range-separated hybrids, TD-DFT gradient, RPA, STAB
   Michael Roemelt        : Original ROCIS implementation
   Masaaki Saitow         : Open-shell DLPNO-CCSD energy and density
   Barbara Sandhoefer     : DKH picture change effects
   Avijit Sen             : IP-ROCIS
   Kantharuban Sivalingam : CASSCF convergence, NEVPT2, FIC-MRCI
   Bernardo de Souza      : ESD, SOC TD-DFT
   Georgi Stoychev        : AutoAux, RI-MP2 NMR, DLPNO-MP2 response
   Willem Van den Heuvel  : Paramagnetic NMR
   Boris Wezisla          : Elementary symmetry handling
   Frank Wennmohs         : Technical directorship


 We gratefully acknowledge several colleagues who have allowed us to
 interface, adapt or use parts of their codes:
   Stefan Grimme, W. Hujo, H. Kruse, P. Pracht,  : VdW corrections, initial TS optimization,
                  C. Bannwarth, S. Ehlert          DFT functionals, gCP, sTDA/sTD-DF
   Ed Valeev, F. Pavosevic, A. Kumar             : LibInt (2-el integral package), F12 methods
   Garnet Chan, S. Sharma, J. Yang, R. Olivares  : DMRG
   Ulf Ekstrom                                   : XCFun DFT Library
   Mihaly Kallay                                 : mrcc  (arbitrary order and MRCC methods)
   Jiri Pittner, Ondrej Demel                    : Mk-CCSD
   Frank Weinhold                                : gennbo (NPA and NBO analysis)
   Christopher J. Cramer and Donald G. Truhlar   : smd solvation model
   Lars Goerigk                                  : TD-DFT with DH, B97 family of functionals
   V. Asgeirsson, H. Jonsson                     : NEB implementation
   FAccTs GmbH                                   : IRC, NEB, NEB-TS, DLPNO-Multilevel, CI-OPT
                                                   MM, QMMM, 2- and 3-layer-ONIOM, Crystal-QMMM,
                                                   LR-CPCM, SF, NACMEs, symmetry and pop. for TD-DFT,
                                                   nearIR, NL-DFT gradient (VV10), updates on ESD,
                                                   ML-optimized integration grids
   S Lehtola, MJT Oliveira, MAL Marques          : LibXC Library
   Liviu Ungur et al                             : ANISO software


 Your calculation uses the libint2 library for the computation of 2-el integrals
 For citations please refer to: http://libint.valeyev.net

 Your ORCA version has been built with support for libXC version: 5.1.0
 For citations please refer to: https://tddft.org/programs/libxc/

 This ORCA versions uses:
   CBLAS   interface :  Fast vector & matrix operations
   LAPACKE interface :  Fast linear algebra routines
   SCALAPACK package :  Parallel linear algebra routines
   Shared memory     :  Shared parallel matrices
   BLAS/LAPACK       :  OpenBLAS 0.3.15  USE64BITINT DYNAMIC_ARCH NO_AFFINITY SkylakeX SINGLE_THREADED
        Core in use  :  SkylakeX
   Copyright (c) 2011-2014, The OpenBLAS Project




***************************************
The coordinates will be read from file: CDCl3.xyz
***************************************


================================================================================

----- Orbital basis set information -----
Your calculation utilizes the basis: def2-SVP
   F. Weigend and R. Ahlrichs, Phys. Chem. Chem. Phys. 7, 3297 (2005).

----- AuxJ basis set information -----
Your calculation utilizes the auxiliary basis: def2/J
   F. Weigend, Phys. Chem. Chem. Phys. 8, 1057 (2006).

================================================================================
                                        WARNINGS
                       Please study these warnings very carefully!
================================================================================


WARNING: Geometry Optimization
  ===> : Switching off AutoStart
         For restart on a previous wavefunction, please use MOREAD

INFO   : the flag for use of the SHARK integral package has been found!

================================================================================
                                       INPUT FILE
================================================================================
NAME = CDCl3-raman.inp
|  1> ! B3LYP OPT def2-SVP NUMFREQ
|  2> %ELPROP
|  3>    POLAR 1
|  4> END 
|  5> 
|  6> * xyzfile 0 1 CDCl3.xyz
|  7> 
|  8> 
|  9>                          ****END OF INPUT****
================================================================================

                       *****************************
                       * Geometry Optimization Run *
                       *****************************

Geometry optimization settings:
Update method            Update   .... BFGS
Choice of coordinates    CoordSys .... Z-matrix Internals
Initial Hessian          InHess   .... Almoef's Model

Convergence Tolerances:
Energy Change            TolE     ....  5.0000e-06 Eh
Max. Gradient            TolMAXG  ....  3.0000e-04 Eh/bohr
RMS Gradient             TolRMSG  ....  1.0000e-04 Eh/bohr
Max. Displacement        TolMAXD  ....  4.0000e-03 bohr
RMS Displacement         TolRMSD  ....  2.0000e-03 bohr
Strict Convergence                ....  False
------------------------------------------------------------------------------
                        ORCA OPTIMIZATION COORDINATE SETUP
------------------------------------------------------------------------------

The optimization will be done in new redundant internal coordinates
Making redundant internal coordinates   ...  (new redundants) done
Evaluating the initial hessian          ...  (Almloef) done
Evaluating the coordinates              ...  done
Calculating the B-matrix                .... done
Calculating the G-matrix                .... done
Diagonalizing the G-matrix              .... done
The first mode is                       ....    1
The number of degrees of freedom        ....    9

    -----------------------------------------------------------------
                    Redundant Internal Coordinates


    -----------------------------------------------------------------
         Definition                    Initial Value    Approx d2E/dq
    -----------------------------------------------------------------
      1. B(Cl  1,C   0)                  1.7836         0.330193   
      2. B(Cl  2,C   0)                  1.7837         0.330089   
      3. B(Cl  3,C   0)                  1.7835         0.330300   
      4. B(H   4,C   0)                  1.0938         0.355095   
      5. A(Cl  1,C   0,Cl  3)          111.3305         0.379258   
      6. A(Cl  2,C   0,Cl  3)          111.3632         0.379238   
      7. A(Cl  1,C   0,H   4)          107.5066         0.330270   
      8. A(Cl  2,C   0,H   4)          107.5170         0.330253   
      9. A(Cl  3,C   0,H   4)          107.5101         0.330288   
     10. A(Cl  1,C   0,Cl  2)          111.3804         0.379216   
    -----------------------------------------------------------------

Number of atoms                         .... 5
Number of degrees of freedom            .... 10

         *************************************************************
         *                GEOMETRY OPTIMIZATION CYCLE   1            *
         *************************************************************
---------------------------------
CARTESIAN COORDINATES (ANGSTROEM)
---------------------------------
  C     -5.446570    2.830433   -0.050006
  Cl    -6.941485    3.788664    0.118098
  Cl    -4.230541    3.689496   -1.032262
  Cl    -4.788282    2.370492    1.542487
  H     -5.704621    1.908081   -0.578301

----------------------------
CARTESIAN COORDINATES (A.U.)
----------------------------
  NO LB      ZA    FRAG     MASS         X           Y           Z
   0 C     6.0000    0    12.011  -10.292525    5.348744   -0.094497
   1 Cl   17.0000    0    35.453  -13.117506    7.159537    0.223173
   2 Cl   17.0000    0    35.453   -7.994564    6.972136   -1.950693
   3 Cl   17.0000    0    35.453   -9.048541    4.479582    2.914878
   4 H     1.0000    0     1.008  -10.780172    3.605751   -1.092831

--------------------------------
INTERNAL COORDINATES (ANGSTROEM)
--------------------------------
 C      0   0   0     0.000000000000     0.00000000     0.00000000
 Cl     1   0   0     1.783602264340     0.00000000     0.00000000
 Cl     1   2   0     1.783687703996   111.38040087     0.00000000
 Cl     1   2   3     1.783513471090   111.33053465   124.94928399
 H      1   2   3     1.093810248785   107.50661316   242.45649036

---------------------------
INTERNAL COORDINATES (A.U.)
---------------------------
 C      0   0   0     0.000000000000     0.00000000     0.00000000
 Cl     1   0   0     3.370519811444     0.00000000     0.00000000
 Cl     1   2   0     3.370681268995   111.38040087     0.00000000
 Cl     1   2   3     3.370352016519   111.33053465   124.94928399
 H      1   2   3     2.067001812679   107.50661316   242.45649036

---------------------
BASIS SET INFORMATION
---------------------
There are 3 groups of distinct atoms

 Group   1 Type C   : 7s4p1d contracted to 3s2p1d pattern {511/31/1}
 Group   2 Type Cl  : 10s7p1d contracted to 4s3p1d pattern {5311/511/1}
 Group   3 Type H   : 4s1p contracted to 2s1p pattern {31/1}

Atom   0C    basis set group =>   1
Atom   1Cl   basis set group =>   2
Atom   2Cl   basis set group =>   2
Atom   3Cl   basis set group =>   2
Atom   4H    basis set group =>   3
---------------------------------
AUXILIARY/J BASIS SET INFORMATION
---------------------------------
There are 3 groups of distinct atoms

 Group   1 Type C   : 12s5p4d2f1g contracted to 6s4p3d1f1g pattern {711111/2111/211/2/1}
 Group   2 Type Cl  : 14s5p5d2f1g contracted to 8s4p3d1f1g pattern {71111111/2111/311/2/1}
 Group   3 Type H   : 5s2p1d contracted to 3s1p1d pattern {311/2/1}

Atom   0C    basis set group =>   1
Atom   1Cl   basis set group =>   2
Atom   2Cl   basis set group =>   2
Atom   3Cl   basis set group =>   2
Atom   4H    basis set group =>   3
------------------------------------------------------------------------------
                           ORCA GTO INTEGRAL CALCULATION
                           -- RI-GTO INTEGRALS CHOSEN --
------------------------------------------------------------------------------
------------------------------------------------------------------------------
                   ___                                                        
                  /   \      - P O W E R E D   B Y -                         
                 /     \                                                     
                 |  |  |   _    _      __       _____    __    __             
                 |  |  |  | |  | |    /  \     |  _  \  |  |  /  |          
                  \  \/   | |  | |   /    \    | | | |  |  | /  /          
                 / \  \   | |__| |  /  /\  \   | |_| |  |  |/  /          
                |  |  |   |  __  | /  /__\  \  |    /   |      \           
                |  |  |   | |  | | |   __   |  |    \   |  |\   \          
                \     /   | |  | | |  |  |  |  | |\  \  |  | \   \       
                 \___/    |_|  |_| |__|  |__|  |_| \__\ |__|  \__/        
                                                                              
                      - O R C A' S   B I G   F R I E N D -                    
                                      &                                       
                       - I N T E G R A L  F E E D E R -                       
                                                                              
 v1 FN, 2020, v2 2021                                                         
------------------------------------------------------------------------------


Reading SHARK input file CDCl3-raman.SHARKINP.tmp ... ok
----------------------
SHARK INTEGRAL PACKAGE
----------------------

Number of atoms                             ...      5
Number of basis functions                   ...     73
Number of shells                            ...     33
Maximum angular momentum                    ...      2
Integral batch strategy                     ... SHARK/LIBINT Hybrid
RI-J (if used) integral strategy            ... SPLIT-RIJ (Revised 2003 algorithm where possible)
Printlevel                                  ...      1
Contraction scheme used                     ... SEGMENTED contraction
Coulomb Range Separation                    ... NOT USED
Exchange Range Separation                   ... NOT USED
Finite Nucleus Model                        ... NOT USED
Auxiliary Coulomb fitting basis             ... AVAILABLE
   # of basis functions in Aux-J            ...    213
   # of shells in Aux-J                     ...     71
   Maximum angular momentum in Aux-J        ...      4
Auxiliary J/K fitting basis                 ... NOT available
Auxiliary Correlation fitting basis         ... NOT available
Auxiliary 'external' fitting basis          ... NOT available
Integral threshold                          ...     2.500000e-11
Primitive cut-off                           ...     2.500000e-12
Primitive pair pre-selection threshold      ...     2.500000e-12

Calculating pre-screening integrals         ... done (  0.0 sec) Dimension = 33
Organizing shell pair data                  ... done (  0.0 sec)
Shell pair information
Total number of shell pairs                 ...       561
Shell pairs after pre-screening             ...       531
Total number of primitive shell pairs       ...      2641
Primitive shell pairs kept                  ...      1861
          la=0 lb=0:    138 shell pairs
          la=1 lb=0:    192 shell pairs
          la=1 lb=1:     75 shell pairs
          la=2 lb=0:     68 shell pairs
          la=2 lb=1:     48 shell pairs
          la=2 lb=2:     10 shell pairs

Calculating one electron integrals          ... done (  0.0 sec)
Calculating RI/J V-Matrix + Cholesky decomp.... done (  0.0 sec)
Calculating Nuclear repulsion               ... done (  0.0 sec) ENN=    260.872946551240 Eh

SHARK setup successfully completed in   0.1 seconds

Maximum memory used throughout the entire GTOINT-calculation: 9.3 MB
-------------------------------------------------------------------------------
                                 ORCA SCF
-------------------------------------------------------------------------------

------------
SCF SETTINGS
------------
Hamiltonian:
 Density Functional     Method          .... DFT(GTOs)
 Exchange Functional    Exchange        .... B88
   X-Alpha parameter    XAlpha          ....  0.666667
   Becke's b parameter  XBeta           ....  0.004200
 Correlation Functional Correlation     .... LYP
 LDA part of GGA corr.  LDAOpt          .... VWN-5
 Gradients option       PostSCFGGA      .... off
 Hybrid DFT is turned on
   Fraction HF Exchange ScalHFX         ....  0.200000
   Scaling of DF-GGA-X  ScalDFX         ....  0.720000
   Scaling of DF-GGA-C  ScalDFC         ....  0.810000
   Scaling of DF-LDA-C  ScalLDAC        ....  1.000000
   Perturbative correction              ....  0.000000
   Density functional embedding theory  .... OFF
   NL short-range parameter             ....  4.800000
 RI-approximation to the Coulomb term is turned on
   Number of AuxJ basis functions       .... 213
   RIJ-COSX (HFX calculated with COS-X)).... on


General Settings:
 Integral files         IntName         .... CDCl3-raman
 Hartree-Fock type      HFTyp           .... RHF
 Total Charge           Charge          ....    0
 Multiplicity           Mult            ....    1
 Number of Electrons    NEL             ....   58
 Basis Dimension        Dim             ....   73
 Nuclear Repulsion      ENuc            ....    260.8729465512 Eh

Convergence Acceleration:
 DIIS                   CNVDIIS         .... on
   Start iteration      DIISMaxIt       ....    12
   Startup error        DIISStart       ....  0.200000
   # of expansion vecs  DIISMaxEq       ....     5
   Bias factor          DIISBfac        ....   1.050
   Max. coefficient     DIISMaxC        ....  10.000
 Trust-Rad. Augm. Hess. CNVTRAH         .... auto
   Auto Start mean grad. ratio tolernc. ....  1.125000
   Auto Start start iteration           ....    20
   Auto Start num. interpolation iter.  ....    10
   Max. Number of Micro iterations      ....    16
   Max. Number of Macro iterations      .... Maxiter - #DIIS iter
   Number of Davidson start vectors     ....     2
   Converg. threshold I  (grad. norm)   ....   1.000e-05
   Converg. threshold II (energy diff.) ....   1.000e-08
   Grad. Scal. Fac. for Micro threshold ....   0.100
   Minimum threshold for Micro iter.    ....   0.010
   NR start threshold (gradient norm)   ....   0.001
   Initial trust radius                 ....   0.400
   Minimum AH scaling param. (alpha)    ....   1.000
   Maximum AH scaling param. (alpha)    .... 1000.000
   Orbital update algorithm             .... Taylor
   White noise on init. David. guess    .... on
   Maximum white noise                  ....   0.010
   Quad. conv. algorithm                .... NR
 SOSCF                  CNVSOSCF        .... on
   Start iteration      SOSCFMaxIt      ....   150
   Startup grad/error   SOSCFStart      ....  0.003300
 Level Shifting         CNVShift        .... on
   Level shift para.    LevelShift      ....    0.2500
   Turn off err/grad.   ShiftErr        ....    0.0010
 Zerner damping         CNVZerner       .... off
 Static damping         CNVDamp         .... on
   Fraction old density DampFac         ....    0.7000
   Max. Damping (<1)    DampMax         ....    0.9800
   Min. Damping (>=0)   DampMin         ....    0.0000
   Turn off err/grad.   DampErr         ....    0.1000
 Fernandez-Rico         CNVRico         .... off

SCF Procedure:
 Maximum # iterations   MaxIter         ....   125
 SCF integral mode      SCFMode         .... Direct
   Integral package                     .... SHARK and LIBINT hybrid scheme
 Reset frequency        DirectResetFreq ....    20
 Integral Threshold     Thresh          ....  2.500e-11 Eh
 Primitive CutOff       TCut            ....  2.500e-12 Eh

Convergence Tolerance:
 Convergence Check Mode ConvCheckMode   .... Total+1el-Energy
 Convergence forced     ConvForced      .... 0
 Energy Change          TolE            ....  1.000e-08 Eh
 1-El. energy change                    ....  1.000e-05 Eh
 Orbital Gradient       TolG            ....  1.000e-05
 Orbital Rotation angle TolX            ....  1.000e-05
 DIIS Error             TolErr          ....  5.000e-07


Diagonalization of the overlap matrix:
Smallest eigenvalue                        ... 6.944e-03
Time for diagonalization                   ...    0.001 sec
Threshold for overlap eigenvalues          ... 1.000e-08
Number of eigenvalues below threshold      ... 0
Time for construction of square roots      ...    0.000 sec
Total time needed                          ...    0.001 sec

Time for model grid setup =    0.032 sec

------------------------------
INITIAL GUESS: MODEL POTENTIAL
------------------------------
Loading Hartree-Fock densities                     ... done
Calculating cut-offs                               ... done
Initializing the effective Hamiltonian             ... done
Setting up the integral package (SHARK)            ... done
Starting the Coulomb interaction                   ... done (   0.0 sec)
Reading the grid                                   ... done
Mapping shells                                     ... done
Starting the XC term evaluation                    ... done (   0.0 sec)
  promolecular density results
     # of electrons  =     57.999740480
     EX              =    -88.004299274
     EC              =     -2.360682431
     EX+EC           =    -90.364981705
Transforming the Hamiltonian                       ... done (   0.0 sec)
Diagonalizing the Hamiltonian                      ... done (   0.0 sec)
Back transforming the eigenvectors                 ... done (   0.0 sec)
Now organizing SCF variables                       ... done
                      ------------------
                      INITIAL GUESS DONE (   0.1 sec)
                      ------------------
-------------------
DFT GRID GENERATION
-------------------

General Integration Accuracy     IntAcc      ... 4.388
Radial Grid Type                 RadialGrid  ... OptM3 with GC (2021)
Angular Grid (max. ang.)         AngularGrid ... 4 (Lebedev-302)
Angular grid pruning method      GridPruning ... 4 (adaptive)
Weight generation scheme         WeightScheme... Becke
Basis function cutoff            BFCut       ... 1.0000e-11
Integration weight cutoff        WCut        ... 1.0000e-14
Angular grids for H and He will be reduced by one unit
Partially contracted basis set               ... off
Rotationally invariant grid construction     ... off

Total number of grid points                  ...    31425
Total number of batches                      ...      494
Average number of points per batch           ...       63
Average number of grid points per atom       ...     6285
Time for grid setup =    0.163 sec

--------------------
COSX GRID GENERATION
--------------------

GRIDX 1
-------
General Integration Accuracy     IntAcc      ... 3.816
Radial Grid Type                 RadialGrid  ... OptM3 with GC (2021)
Angular Grid (max. ang.)         AngularGrid ... 1 (Lebedev-50)
Angular grid pruning method      GridPruning ... 4 (adaptive)
Weight generation scheme         WeightScheme... Becke
Basis function cutoff            BFCut       ... 1.0000e-11
Integration weight cutoff        WCut        ... 1.0000e-14
Angular grids for H and He will be reduced by one unit
Partially contracted basis set               ... on
Rotationally invariant grid construction     ... off

Total number of grid points                  ...     3727
Total number of batches                      ...       61
Average number of points per batch           ...       61
Average number of grid points per atom       ...      745
UseSFitting                                  ... on

GRIDX 2
-------
General Integration Accuracy     IntAcc      ... 4.020
Radial Grid Type                 RadialGrid  ... OptM3 with GC (2021)
Angular Grid (max. ang.)         AngularGrid ... 2 (Lebedev-110)
Angular grid pruning method      GridPruning ... 4 (adaptive)
Weight generation scheme         WeightScheme... Becke
Basis function cutoff            BFCut       ... 1.0000e-11
Integration weight cutoff        WCut        ... 1.0000e-14
Angular grids for H and He will be reduced by one unit
Partially contracted basis set               ... on
Rotationally invariant grid construction     ... off

Total number of grid points                  ...     8586
Total number of batches                      ...      138
Average number of points per batch           ...       62
Average number of grid points per atom       ...     1717
UseSFitting                                  ... on

GRIDX 3
-------
General Integration Accuracy     IntAcc      ... 4.338
Radial Grid Type                 RadialGrid  ... OptM3 with GC (2021)
Angular Grid (max. ang.)         AngularGrid ... 3 (Lebedev-194)
Angular grid pruning method      GridPruning ... 4 (adaptive)
Weight generation scheme         WeightScheme... Becke
Basis function cutoff            BFCut       ... 1.0000e-11
Integration weight cutoff        WCut        ... 1.0000e-14
Angular grids for H and He will be reduced by one unit
Partially contracted basis set               ... on
Rotationally invariant grid construction     ... off

Total number of grid points                  ...    20886
Total number of batches                      ...      330
Average number of points per batch           ...       63
Average number of grid points per atom       ...     4177
UseSFitting                                  ... on

Time for X-Grid setup             =    0.156 sec

--------------
SCF ITERATIONS
--------------
ITER       Energy         Delta-E        Max-DP      RMS-DP      [F,P]     Damp
               ***  Starting incremental Fock matrix formation  ***
  0  -1418.6256814279   0.000000000000 0.02892523  0.00146486  0.0447446 0.7000
  1  -1418.6322023783  -0.006520950401 0.01975684  0.00098405  0.0244280 0.7000
                               ***Turning on DIIS***
  2  -1418.6349283147  -0.002725936345 0.03538192  0.00167770  0.0132076 0.0000
  3  -1418.6401062338  -0.005177919156 0.01333926  0.00082300  0.0104260 0.0000
  4  -1418.6405890424  -0.000482808547 0.00717323  0.00019078  0.0065197 0.0000
                      *** Initiating the SOSCF procedure ***
                           *** Shutting down DIIS ***
                      *** Re-Reading the Fockian *** 
                      *** Removing any level shift *** 
ITER      Energy       Delta-E        Grad      Rot      Max-DP    RMS-DP
  5  -1418.64072462  -0.0001355729  0.000430  0.000430  0.001580  0.000076
               *** Restarting incremental Fock matrix formation ***
  6  -1418.64073383  -0.0000092164  0.000339  0.000682  0.001178  0.000049
  7  -1418.64073183   0.0000020019  0.000633  0.000445  0.000879  0.000032
  8  -1418.64073471  -0.0000028807  0.000005  0.000013  0.000016  0.000001
  9  -1418.64073471   0.0000000014  0.000003  0.000003  0.000006  0.000000
                 **** Energy Check signals convergence ****
              ***Rediagonalizing the Fockian in SOSCF/NRSCF***

               *****************************************************
               *                     SUCCESS                       *
               *           SCF CONVERGED AFTER  10 CYCLES          *
               *****************************************************

Old exchange energy                            =    -17.628495659 Eh
New exchange energy                            =    -17.628503512 Eh
Exchange energy change after final integration =     -0.000007852 Eh
Total energy after final integration           =  -1418.640742563 Eh
Final COS-X integration done in                =     0.799 sec

----------------
TOTAL SCF ENERGY
----------------

Total Energy       :        -1418.64074256 Eh          -38603.17715 eV

Components:
Nuclear Repulsion  :          260.87294655 Eh            7098.71377 eV
Electronic Energy  :        -1679.51368911 Eh          -45701.89092 eV
One Electron Energy:        -2477.19934853 Eh          -67408.02123 eV
Two Electron Energy:          797.68565942 Eh           21706.13031 eV
Max COSX asymmetry :            0.00000172 Eh               0.00005 eV

Virial components:
Potential Energy   :        -2834.33259348 Eh          -77126.11088 eV
Kinetic Energy     :         1415.69185092 Eh           38522.93373 eV
Virial Ratio       :            2.00208300


DFT components:
N(Alpha)           :       28.999994904680 electrons
N(Beta)            :       28.999994904680 electrons
N(Total)           :       57.999989809359 electrons
E(X)               :      -69.962813067588 Eh       
E(C)               :       -2.761877667543 Eh       
E(XC)              :      -72.724690735131 Eh       
DFET-embed. en.    :        0.000000000000 Eh       

---------------
SCF CONVERGENCE
---------------

  Last Energy change         ...   -1.2060e-09  Tolerance :   1.0000e-08
  Last MAX-Density change    ...    2.2204e-15  Tolerance :   1.0000e-07
  Last RMS-Density change    ...    1.1641e-16  Tolerance :   5.0000e-09
  Last Orbital Gradient      ...    2.7667e-07  Tolerance :   1.0000e-05
  Last Orbital Rotation      ...    3.4752e-07  Tolerance :   1.0000e-05

             **** THE GBW FILE WAS UPDATED (CDCl3-raman.gbw) ****
             **** DENSITY CDCl3-raman.scfp WAS UPDATED ****
             **** ENERGY FILE WAS UPDATED (CDCl3-raman.en.tmp) ****
             **** THE GBW FILE WAS UPDATED (CDCl3-raman.gbw) ****
             **** DENSITY CDCl3-raman.scfp WAS UPDATED ****
----------------
ORBITAL ENERGIES
----------------

  NO   OCC          E(Eh)            E(eV) 
   0   2.0000    -101.518268     -2762.4525 
   1   2.0000    -101.518253     -2762.4521 
   2   2.0000    -101.518207     -2762.4509 
   3   2.0000     -10.352472      -281.7051 
   4   2.0000      -9.473421      -257.7849 
   5   2.0000      -9.473407      -257.7845 
   6   2.0000      -9.473366      -257.7834 
   7   2.0000      -7.242994      -197.0919 
   8   2.0000      -7.242978      -197.0915 
   9   2.0000      -7.242958      -197.0909 
  10   2.0000      -7.232174      -196.7975 
  11   2.0000      -7.232154      -196.7969 
  12   2.0000      -7.232146      -196.7967 
  13   2.0000      -7.231998      -196.7927 
  14   2.0000      -7.231978      -196.7921 
  15   2.0000      -7.231973      -196.7920 
  16   2.0000      -0.934351       -25.4250 
  17   2.0000      -0.834022       -22.6949 
  18   2.0000      -0.833988       -22.6940 
  19   2.0000      -0.641742       -17.4627 
  20   2.0000      -0.502962       -13.6863 
  21   2.0000      -0.470251       -12.7962 
  22   2.0000      -0.470219       -12.7953 
  23   2.0000      -0.346907        -9.4398 
  24   2.0000      -0.346868        -9.4388 
  25   2.0000      -0.320091        -8.7101 
  26   2.0000      -0.320055        -8.7091 
  27   2.0000      -0.316168        -8.6034 
  28   2.0000      -0.302572        -8.2334 
  29   0.0000      -0.016984        -0.4622 
  30   0.0000       0.026332         0.7165 
  31   0.0000       0.026363         0.7174 
  32   0.0000       0.065789         1.7902 
  33   0.0000       0.393115        10.6972 
  34   0.0000       0.398934        10.8556 
  35   0.0000       0.398962        10.8563 
  36   0.0000       0.412710        11.2304 
  37   0.0000       0.538341        14.6490 
  38   0.0000       0.538444        14.6518 
  39   0.0000       0.586896        15.9703 
  40   0.0000       0.665345        18.1049 
  41   0.0000       0.665425        18.1071 
  42   0.0000       0.727652        19.8004 
  43   0.0000       0.736592        20.0437 
  44   0.0000       0.736598        20.0439 
  45   0.0000       0.743192        20.2233 
  46   0.0000       0.758254        20.6331 
  47   0.0000       0.758259        20.6333 
  48   0.0000       0.765903        20.8413 
  49   0.0000       0.777898        21.1677 
  50   0.0000       0.777905        21.1679 
  51   0.0000       0.780190        21.2301 
  52   0.0000       0.792936        21.5769 
  53   0.0000       0.811673        22.0867 
  54   0.0000       0.811682        22.0870 
  55   0.0000       0.828726        22.5508 
  56   0.0000       0.848774        23.0963 
  57   0.0000       0.848802        23.0971 
  58   0.0000       1.022840        27.8329 
  59   0.0000       1.033194        28.1146 
  60   0.0000       1.033290        28.1172 
  61   0.0000       1.202830        32.7307 
  62   0.0000       1.254163        34.1275 
  63   0.0000       1.254350        34.1326 
  64   0.0000       1.358278        36.9606 
  65   0.0000       1.540782        41.9268 
  66   0.0000       1.541082        41.9350 
  67   0.0000       1.891716        51.4762 
  68   0.0000       2.053423        55.8765 
  69   0.0000       2.053593        55.8811 
  70   0.0000       2.134464        58.0817 
  71   0.0000       2.134515        58.0831 
  72   0.0000       2.772749        75.4503 

                    ********************************
                    * MULLIKEN POPULATION ANALYSIS *
                    ********************************

-----------------------
MULLIKEN ATOMIC CHARGES
-----------------------
   0 C :    0.083041
   1 Cl:   -0.069034
   2 Cl:   -0.068981
   3 Cl:   -0.069008
   4 H :    0.123982
Sum of atomic charges:    0.0000000

--------------------------------
MULLIKEN REDUCED ORBITAL CHARGES
--------------------------------
  0 C s       :     3.124581  s :     3.124581
      pz      :     0.883551  p :     2.724365
      px      :     0.839770
      py      :     1.001044
      dz2     :     0.013572  d :     0.068013
      dxz     :     0.015335
      dyz     :     0.013019
      dx2y2   :     0.011273
      dxy     :     0.014815
  1 Cls       :     5.955695  s :     5.955695
      pz      :     3.931694  p :    11.080346
      px      :     3.408083
      py      :     3.740569
      dz2     :     0.005383  d :     0.032993
      dxz     :     0.004235
      dyz     :     0.001979
      dx2y2   :     0.007413
      dxy     :     0.013983
  2 Cls       :     5.955673  s :     5.955673
      pz      :     3.707480  p :    11.080325
      px      :     3.590969
      py      :     3.781876
      dz2     :     0.003743  d :     0.032983
      dxz     :     0.010388
      dyz     :     0.005843
      dx2y2   :     0.004313
      dxy     :     0.008696
  3 Cls       :     5.955684  s :     5.955684
      pz      :     3.352051  p :    11.080322
      px      :     3.834103
      py      :     3.894169
      dz2     :     0.012863  d :     0.033002
      dxz     :     0.009742
      dyz     :     0.007400
      dx2y2   :     0.001053
      dxy     :     0.001945
  4 H s       :     0.855029  s :     0.855029
      pz      :     0.005727  p :     0.020989
      px      :     0.003471
      py      :     0.011791


                     *******************************
                     * LOEWDIN POPULATION ANALYSIS *
                     *******************************

----------------------
LOEWDIN ATOMIC CHARGES
----------------------
   0 C :   -0.246941
   1 Cl:    0.075796
   2 Cl:    0.075799
   3 Cl:    0.075837
   4 H :    0.019509

-------------------------------
LOEWDIN REDUCED ORBITAL CHARGES
-------------------------------
  0 C s       :     3.050899  s :     3.050899
      pz      :     1.002933  p :     3.055634
      px      :     0.975114
      py      :     1.077587
      dz2     :     0.027276  d :     0.140408
      dxz     :     0.031000
      dyz     :     0.028127
      dx2y2   :     0.023089
      dxy     :     0.030916
  1 Cls       :     5.798889  s :     5.798889
      pz      :     3.919548  p :    11.086795
      px      :     3.431130
      py      :     3.736118
      dz2     :     0.006603  d :     0.038520
      dxz     :     0.004532
      dyz     :     0.002087
      dx2y2   :     0.008406
      dxy     :     0.016892
  2 Cls       :     5.798918  s :     5.798918
      pz      :     3.711845  p :    11.086775
      px      :     3.599722
      py      :     3.775208
      dz2     :     0.003872  d :     0.038508
      dxz     :     0.012735
      dyz     :     0.007009
      dx2y2   :     0.004788
      dxy     :     0.010105
  3 Cls       :     5.798853  s :     5.798853
      pz      :     3.373274  p :    11.086777
      px      :     3.828172
      py      :     3.885332
      dz2     :     0.015243  d :     0.038532
      dxz     :     0.011433
      dyz     :     0.008531
      dx2y2   :     0.001125
      dxy     :     0.002201
  4 H s       :     0.903772  s :     0.903772
      pz      :     0.021275  p :     0.076719
      px      :     0.013649
      py      :     0.041794


                      *****************************
                      * MAYER POPULATION ANALYSIS *
                      *****************************

  NA   - Mulliken gross atomic population
  ZA   - Total nuclear charge
  QA   - Mulliken gross atomic charge
  VA   - Mayer's total valence
  BVA  - Mayer's bonded valence
  FA   - Mayer's free valence

  ATOM       NA         ZA         QA         VA         BVA        FA
  0 C      5.9170     6.0000     0.0830     4.0509     4.0509     0.0000
  1 Cl    17.0690    17.0000    -0.0690     1.1388     1.1388     0.0000
  2 Cl    17.0690    17.0000    -0.0690     1.1389     1.1389     0.0000
  3 Cl    17.0690    17.0000    -0.0690     1.1388     1.1388    -0.0000
  4 H      0.8760     1.0000     0.1240     0.9685     0.9685    -0.0000

  Mayer bond orders larger than 0.100000
B(  0-C ,  1-Cl) :   1.0355 B(  0-C ,  2-Cl) :   1.0355 B(  0-C ,  3-Cl) :   1.0355 
B(  0-C ,  4-H ) :   0.9444 

-------
TIMINGS
-------

Total SCF time: 0 days 0 hours 0 min 5 sec 

Total time                  ....       5.601 sec
Sum of individual times     ....       5.532 sec  ( 98.8%)

Fock matrix formation       ....       5.131 sec  ( 91.6%)
  Split-RI-J                ....       0.384 sec  (  7.5% of F)
  Chain of spheres X        ....       3.450 sec  ( 67.2% of F)
  XC integration            ....       1.305 sec  ( 25.4% of F)
    Basis function eval.    ....       0.528 sec  ( 40.5% of XC)
    Density eval.           ....       0.210 sec  ( 16.1% of XC)
    XC-Functional eval.     ....       0.268 sec  ( 20.5% of XC)
    XC-Potential eval.      ....       0.235 sec  ( 18.0% of XC)
Diagonalization             ....       0.004 sec  (  0.1%)
Density matrix formation    ....       0.001 sec  (  0.0%)
Population analysis         ....       0.001 sec  (  0.0%)
Initial guess               ....       0.043 sec  (  0.8%)
Orbital Transformation      ....       0.000 sec  (  0.0%)
Orbital Orthonormalization  ....       0.000 sec  (  0.0%)
DIIS solution               ....       0.001 sec  (  0.0%)
SOSCF solution              ....       0.002 sec  (  0.0%)
Grid generation             ....       0.351 sec  (  6.3%)

Maximum memory used throughout the entire SCF-calculation: 50.4 MB

-------------------------   --------------------
FINAL SINGLE POINT ENERGY     -1418.640742562716
-------------------------   --------------------

------------------------------------------------------------------------------
                         ORCA SCF GRADIENT CALCULATION
------------------------------------------------------------------------------

 ... reading COSX grid (gridx3)
Gradient of the Kohn-Sham DFT energy:
Kohn-Sham wavefunction type      ... RKS
Hartree-Fock exchange scaling    ...    0.200
Number of operators              ...    1
Number of atoms                  ...    5
Basis set dimensions             ...   73
Integral neglect threshold       ... 2.5e-11
Integral primitive cutoff        ... 2.5e-12
SHARK Integral package           ... ON

Nuc. rep. gradient       (SHARK) ... done (  0.0 sec)
HCore & Overlap gradient (SHARK) ... done (  0.0 sec)
RI-J gradient            (SHARK) ... done (  0.2 sec)
COSX-gradient                    ... done (  0.9 sec)
Exchange-correlation gradient    ... done

------------------
CARTESIAN GRADIENT
------------------

   1   C   :   -0.000014900    0.000023038   -0.000003479
   2   Cl  :   -0.000015966    0.000000686   -0.000047273
   3   Cl  :   -0.000019749   -0.000031335   -0.000007660
   4   Cl  :   -0.000040123    0.000036114    0.000005371
   5   H   :   -0.000020667   -0.000012449    0.000019782

Difference to translation invariance:
           :   -0.0001114055    0.0000160536   -0.0000332585

Difference to rotation invariance:
           :   -0.0004930511   -0.0005132893    0.0003977778

Norm of the cartesian gradient     ...    0.0000927465
RMS gradient                       ...    0.0000239470
MAX gradient                       ...    0.0000472728

-------
TIMINGS
-------

Total SCF gradient time            ...        1.659 sec

One electron gradient       ....       0.013 sec  (  0.8%)
RI-J Coulomb gradient       ....       0.160 sec  (  9.7%)
COSX gradient               ....       0.919 sec  ( 55.4%)
XC gradient                 ....       0.431 sec  ( 26.0%)

Maximum memory used throughout the entire SCFGRAD-calculation: 39.6 MB
------------------------------------------------------------------------------
                         ORCA GEOMETRY RELAXATION STEP
------------------------------------------------------------------------------

Reading the OPT-File                    .... done
Getting information on internals        .... done
Copying old internal coords+grads       .... done
Making the new internal coordinates     .... (new redundants).... done
Validating the new internal coordinates .... (new redundants).... done
Calculating the B-matrix                .... done
Calculating the G,G- and P matrices     .... done
Transforming gradient to internals      .... done
Projecting the internal gradient        .... done
Number of atoms                         ....   5
Number of internal coordinates          ....  10
Current Energy                          .... -1418.640742563 Eh
Current gradient norm                   ....     0.000092747 Eh/bohr
Maximum allowed component of the step   ....  0.300
Current trust radius                    ....  0.300
Evaluating the initial hessian          ....  (Almloef) done
Projecting the Hessian                  .... done
Forming the augmented Hessian           .... done
Diagonalizing the augmented Hessian     .... done
Last element of RFO vector              ....  0.999999997
Lowest eigenvalues of augmented Hessian:
 -0.000000002  0.330088886  0.330192508  0.330260143  0.330280322
Length of the computed step             ....  0.000077004
The final length of the internal step   ....  0.000077004
Converting the step to cartesian space:
 Initial RMS(Int)=    0.0000243509
Transforming coordinates:
 Iter   0:  RMS(Cart)=    0.0000239487 RMS(Int)=    0.0000243511
 Iter   1:  RMS(Cart)=    0.0000000003 RMS(Int)=    0.0000000004
done
Storing new coordinates                 .... done

                                .--------------------.
          ----------------------|Geometry convergence|-------------------------
          Item                value                   Tolerance       Converged
          ---------------------------------------------------------------------
          RMS gradient        0.0000082813            0.0001000000      YES
          MAX gradient        0.0000129738            0.0003000000      YES
          RMS step            0.0000243509            0.0020000000      YES
          MAX step            0.0000393039            0.0040000000      YES
          ........................................................
          Max(Bonds)      0.0000      Max(Angles)    0.00
          Max(Dihed)        0.00      Max(Improp)    0.00
          ---------------------------------------------------------------------

                    ***********************HURRAY********************
                    ***        THE OPTIMIZATION HAS CONVERGED     ***
                    *************************************************


    ---------------------------------------------------------------------------
                         Redundant Internal Coordinates

                          --- Optimized Parameters ---  
                            (Angstroem and degrees)

        Definition                    OldVal   dE/dq     Step     FinalVal
    ----------------------------------------------------------------------------
     1. B(Cl  1,C   0)                1.7836 -0.000010  0.0000    1.7836   
     2. B(Cl  2,C   0)                1.7837 -0.000013  0.0000    1.7837   
     3. B(Cl  3,C   0)                1.7835 -0.000006  0.0000    1.7835   
     4. B(H   4,C   0)                1.0938  0.000000 -0.0000    1.0938   
     5. A(Cl  1,C   0,Cl  3)          111.33  0.000010   -0.00    111.33   
     6. A(Cl  2,C   0,Cl  3)          111.36  0.000005   -0.00    111.36   
     7. A(Cl  1,C   0,H   4)          107.51 -0.000009    0.00    107.51   
     8. A(Cl  2,C   0,H   4)          107.52  0.000000   -0.00    107.52   
     9. A(Cl  3,C   0,H   4)          107.51 -0.000012    0.00    107.51   
    10. A(Cl  1,C   0,Cl  2)          111.38  0.000005   -0.00    111.38   
    ----------------------------------------------------------------------------
                 *******************************************************
                 *** FINAL ENERGY EVALUATION AT THE STATIONARY POINT ***
                 ***               (AFTER    1 CYCLES)               ***
                 *******************************************************
---------------------------------
CARTESIAN COORDINATES (ANGSTROEM)
---------------------------------
  C     -5.446576    2.830412   -0.050013
  Cl    -6.941486    3.788675    0.118116
  Cl    -4.230533    3.689503   -1.032264
  Cl    -4.788285    2.370510    1.542501
  H     -5.704620    1.908066   -0.578324

----------------------------
CARTESIAN COORDINATES (A.U.)
----------------------------
  NO LB      ZA    FRAG     MASS         X           Y           Z
   0 C     6.0000    0    12.011  -10.292536    5.348703   -0.094511
   1 Cl   17.0000    0    35.453  -13.117507    7.159559    0.223207
   2 Cl   17.0000    0    35.453   -7.994548    6.972151   -1.950696
   3 Cl   17.0000    0    35.453   -9.048547    4.479614    2.914904
   4 H     1.0000    0     1.008  -10.780169    3.605722   -1.092874

--------------------------------
INTERNAL COORDINATES (ANGSTROEM)
--------------------------------
 C      0   0   0     0.000000000000     0.00000000     0.00000000
 Cl     1   0   0     1.783617861491     0.00000000     0.00000000
 Cl     1   2   0     1.783708502712   111.37959706     0.00000000
 Cl     1   2   3     1.783523823958   111.32893436   124.94644550
 H      1   2   3     1.093810168251   107.50810226   242.45614675

---------------------------
INTERNAL COORDINATES (A.U.)
---------------------------
 C      0   0   0     0.000000000000     0.00000000     0.00000000
 Cl     1   0   0     3.370549285789     0.00000000     0.00000000
 Cl     1   2   0     3.370720572873   111.37959706     0.00000000
 Cl     1   2   3     3.370371580604   111.32893436   124.94644550
 H      1   2   3     2.067001660493   107.50810226   242.45614675

---------------------
BASIS SET INFORMATION
---------------------
There are 3 groups of distinct atoms

 Group   1 Type C   : 7s4p1d contracted to 3s2p1d pattern {511/31/1}
 Group   2 Type Cl  : 10s7p1d contracted to 4s3p1d pattern {5311/511/1}
 Group   3 Type H   : 4s1p contracted to 2s1p pattern {31/1}

Atom   0C    basis set group =>   1
Atom   1Cl   basis set group =>   2
Atom   2Cl   basis set group =>   2
Atom   3Cl   basis set group =>   2
Atom   4H    basis set group =>   3
---------------------------------
AUXILIARY/J BASIS SET INFORMATION
---------------------------------
There are 3 groups of distinct atoms

 Group   1 Type C   : 12s5p4d2f1g contracted to 6s4p3d1f1g pattern {711111/2111/211/2/1}
 Group   2 Type Cl  : 14s5p5d2f1g contracted to 8s4p3d1f1g pattern {71111111/2111/311/2/1}
 Group   3 Type H   : 5s2p1d contracted to 3s1p1d pattern {311/2/1}

Atom   0C    basis set group =>   1
Atom   1Cl   basis set group =>   2
Atom   2Cl   basis set group =>   2
Atom   3Cl   basis set group =>   2
Atom   4H    basis set group =>   3
------------------------------------------------------------------------------
                           ORCA GTO INTEGRAL CALCULATION
                           -- RI-GTO INTEGRALS CHOSEN --
------------------------------------------------------------------------------
------------------------------------------------------------------------------
                   ___                                                        
                  /   \      - P O W E R E D   B Y -                         
                 /     \                                                     
                 |  |  |   _    _      __       _____    __    __             
                 |  |  |  | |  | |    /  \     |  _  \  |  |  /  |          
                  \  \/   | |  | |   /    \    | | | |  |  | /  /          
                 / \  \   | |__| |  /  /\  \   | |_| |  |  |/  /          
                |  |  |   |  __  | /  /__\  \  |    /   |      \           
                |  |  |   | |  | | |   __   |  |    \   |  |\   \          
                \     /   | |  | | |  |  |  |  | |\  \  |  | \   \       
                 \___/    |_|  |_| |__|  |__|  |_| \__\ |__|  \__/        
                                                                              
                      - O R C A' S   B I G   F R I E N D -                    
                                      &                                       
                       - I N T E G R A L  F E E D E R -                       
                                                                              
 v1 FN, 2020, v2 2021                                                         
------------------------------------------------------------------------------


Reading SHARK input file CDCl3-raman.SHARKINP.tmp ... ok
----------------------
SHARK INTEGRAL PACKAGE
----------------------

Number of atoms                             ...      5
Number of basis functions                   ...     73
Number of shells                            ...     33
Maximum angular momentum                    ...      2
Integral batch strategy                     ... SHARK/LIBINT Hybrid
RI-J (if used) integral strategy            ... SPLIT-RIJ (Revised 2003 algorithm where possible)
Printlevel                                  ...      1
Contraction scheme used                     ... SEGMENTED contraction
Coulomb Range Separation                    ... NOT USED
Exchange Range Separation                   ... NOT USED
Finite Nucleus Model                        ... NOT USED
Auxiliary Coulomb fitting basis             ... AVAILABLE
   # of basis functions in Aux-J            ...    213
   # of shells in Aux-J                     ...     71
   Maximum angular momentum in Aux-J        ...      4
Auxiliary J/K fitting basis                 ... NOT available
Auxiliary Correlation fitting basis         ... NOT available
Auxiliary 'external' fitting basis          ... NOT available
Integral threshold                          ...     2.500000e-11
Primitive cut-off                           ...     2.500000e-12
Primitive pair pre-selection threshold      ...     2.500000e-12

Calculating pre-screening integrals         ... done (  0.0 sec) Dimension = 33
Organizing shell pair data                  ... done (  0.0 sec)
Shell pair information
Total number of shell pairs                 ...       561
Shell pairs after pre-screening             ...       531
Total number of primitive shell pairs       ...      2641
Primitive shell pairs kept                  ...      1861
          la=0 lb=0:    138 shell pairs
          la=1 lb=0:    192 shell pairs
          la=1 lb=1:     75 shell pairs
          la=2 lb=0:     68 shell pairs
          la=2 lb=1:     48 shell pairs
          la=2 lb=2:     10 shell pairs

Calculating one electron integrals          ... done (  0.0 sec)
Calculating RI/J V-Matrix + Cholesky decomp.... done (  0.0 sec)
Calculating Nuclear repulsion               ... done (  0.0 sec) ENN=    260.871636174345 Eh

SHARK setup successfully completed in   0.1 seconds

Maximum memory used throughout the entire GTOINT-calculation: 9.3 MB
-------------------------------------------------------------------------------
                                 ORCA SCF
-------------------------------------------------------------------------------

------------
SCF SETTINGS
------------
Hamiltonian:
 Density Functional     Method          .... DFT(GTOs)
 Exchange Functional    Exchange        .... B88
   X-Alpha parameter    XAlpha          ....  0.666667
   Becke's b parameter  XBeta           ....  0.004200
 Correlation Functional Correlation     .... LYP
 LDA part of GGA corr.  LDAOpt          .... VWN-5
 Gradients option       PostSCFGGA      .... off
 Hybrid DFT is turned on
   Fraction HF Exchange ScalHFX         ....  0.200000
   Scaling of DF-GGA-X  ScalDFX         ....  0.720000
   Scaling of DF-GGA-C  ScalDFC         ....  0.810000
   Scaling of DF-LDA-C  ScalLDAC        ....  1.000000
   Perturbative correction              ....  0.000000
   Density functional embedding theory  .... OFF
   NL short-range parameter             ....  4.800000
 RI-approximation to the Coulomb term is turned on
   Number of AuxJ basis functions       .... 213
   RIJ-COSX (HFX calculated with COS-X)).... on


General Settings:
 Integral files         IntName         .... CDCl3-raman
 Hartree-Fock type      HFTyp           .... RHF
 Total Charge           Charge          ....    0
 Multiplicity           Mult            ....    1
 Number of Electrons    NEL             ....   58
 Basis Dimension        Dim             ....   73
 Nuclear Repulsion      ENuc            ....    260.8716361743 Eh

Convergence Acceleration:
 DIIS                   CNVDIIS         .... on
   Start iteration      DIISMaxIt       ....    12
   Startup error        DIISStart       ....  0.200000
   # of expansion vecs  DIISMaxEq       ....     5
   Bias factor          DIISBfac        ....   1.050
   Max. coefficient     DIISMaxC        ....  10.000
 Trust-Rad. Augm. Hess. CNVTRAH         .... auto
   Auto Start mean grad. ratio tolernc. ....  1.125000
   Auto Start start iteration           ....     1
   Auto Start num. interpolation iter.  ....    10
   Max. Number of Micro iterations      ....    16
   Max. Number of Macro iterations      .... Maxiter - #DIIS iter
   Number of Davidson start vectors     ....     2
   Converg. threshold I  (grad. norm)   ....   1.000e-05
   Converg. threshold II (energy diff.) ....   1.000e-08
   Grad. Scal. Fac. for Micro threshold ....   0.100
   Minimum threshold for Micro iter.    ....   0.010
   NR start threshold (gradient norm)   ....   0.001
   Initial trust radius                 ....   0.400
   Minimum AH scaling param. (alpha)    ....   1.000
   Maximum AH scaling param. (alpha)    .... 1000.000
   Orbital update algorithm             .... Taylor
   White noise on init. David. guess    .... on
   Maximum white noise                  ....   0.010
   Quad. conv. algorithm                .... NR
 SOSCF                  CNVSOSCF        .... on
   Start iteration      SOSCFMaxIt      ....   150
   Startup grad/error   SOSCFStart      ....  0.003300
 Level Shifting         CNVShift        .... on
   Level shift para.    LevelShift      ....    0.2500
   Turn off err/grad.   ShiftErr        ....    0.0010
 Zerner damping         CNVZerner       .... off
 Static damping         CNVDamp         .... on
   Fraction old density DampFac         ....    0.7000
   Max. Damping (<1)    DampMax         ....    0.9800
   Min. Damping (>=0)   DampMin         ....    0.0000
   Turn off err/grad.   DampErr         ....    0.1000
 Fernandez-Rico         CNVRico         .... off

SCF Procedure:
 Maximum # iterations   MaxIter         ....   125
 SCF integral mode      SCFMode         .... Direct
   Integral package                     .... SHARK and LIBINT hybrid scheme
 Reset frequency        DirectResetFreq ....    20
 Integral Threshold     Thresh          ....  2.500e-11 Eh
 Primitive CutOff       TCut            ....  2.500e-12 Eh

Convergence Tolerance:
 Convergence Check Mode ConvCheckMode   .... Total+1el-Energy
 Convergence forced     ConvForced      .... 0
 Energy Change          TolE            ....  1.000e-08 Eh
 1-El. energy change                    ....  1.000e-05 Eh
 Orbital Gradient       TolG            ....  1.000e-05
 Orbital Rotation angle TolX            ....  1.000e-05
 DIIS Error             TolErr          ....  5.000e-07


Diagonalization of the overlap matrix:
Smallest eigenvalue                        ... 6.944e-03
Time for diagonalization                   ...    0.001 sec
Threshold for overlap eigenvalues          ... 1.000e-08
Number of eigenvalues below threshold      ... 0
Time for construction of square roots      ...    0.000 sec
Total time needed                          ...    0.001 sec

---------------------
INITIAL GUESS: MOREAD
---------------------
Guess MOs are being read from file: CDCl3-raman.gbw
Input Geometry matches current geometry (good)
Input basis set matches current basis set (good)
MOs were renormalized
MOs were reorthogonalized (Cholesky)
                      ------------------
                      INITIAL GUESS DONE (   0.0 sec)
                      ------------------
-------------------
DFT GRID GENERATION
-------------------

General Integration Accuracy     IntAcc      ... 4.388
Radial Grid Type                 RadialGrid  ... OptM3 with GC (2021)
Angular Grid (max. ang.)         AngularGrid ... 4 (Lebedev-302)
Angular grid pruning method      GridPruning ... 4 (adaptive)
Weight generation scheme         WeightScheme... Becke
Basis function cutoff            BFCut       ... 1.0000e-11
Integration weight cutoff        WCut        ... 1.0000e-14
Angular grids for H and He will be reduced by one unit
Partially contracted basis set               ... off
Rotationally invariant grid construction     ... off

Total number of grid points                  ...    31425
Total number of batches                      ...      494
Average number of points per batch           ...       63
Average number of grid points per atom       ...     6285
Time for grid setup =    0.164 sec

--------------------
COSX GRID GENERATION
--------------------

GRIDX 1
-------
General Integration Accuracy     IntAcc      ... 3.816
Radial Grid Type                 RadialGrid  ... OptM3 with GC (2021)
Angular Grid (max. ang.)         AngularGrid ... 1 (Lebedev-50)
Angular grid pruning method      GridPruning ... 4 (adaptive)
Weight generation scheme         WeightScheme... Becke
Basis function cutoff            BFCut       ... 1.0000e-11
Integration weight cutoff        WCut        ... 1.0000e-14
Angular grids for H and He will be reduced by one unit
Partially contracted basis set               ... on
Rotationally invariant grid construction     ... off

Total number of grid points                  ...     3727
Total number of batches                      ...       61
Average number of points per batch           ...       61
Average number of grid points per atom       ...      745
UseSFitting                                  ... on

GRIDX 2
-------
General Integration Accuracy     IntAcc      ... 4.020
Radial Grid Type                 RadialGrid  ... OptM3 with GC (2021)
Angular Grid (max. ang.)         AngularGrid ... 2 (Lebedev-110)
Angular grid pruning method      GridPruning ... 4 (adaptive)
Weight generation scheme         WeightScheme... Becke
Basis function cutoff            BFCut       ... 1.0000e-11
Integration weight cutoff        WCut        ... 1.0000e-14
Angular grids for H and He will be reduced by one unit
Partially contracted basis set               ... on
Rotationally invariant grid construction     ... off

Total number of grid points                  ...     8586
Total number of batches                      ...      138
Average number of points per batch           ...       62
Average number of grid points per atom       ...     1717
UseSFitting                                  ... on

GRIDX 3
-------
General Integration Accuracy     IntAcc      ... 4.338
Radial Grid Type                 RadialGrid  ... OptM3 with GC (2021)
Angular Grid (max. ang.)         AngularGrid ... 3 (Lebedev-194)
Angular grid pruning method      GridPruning ... 4 (adaptive)
Weight generation scheme         WeightScheme... Becke
Basis function cutoff            BFCut       ... 1.0000e-11
Integration weight cutoff        WCut        ... 1.0000e-14
Angular grids for H and He will be reduced by one unit
Partially contracted basis set               ... on
Rotationally invariant grid construction     ... off

Total number of grid points                  ...    20886
Total number of batches                      ...      330
Average number of points per batch           ...       63
Average number of grid points per atom       ...     4177
UseSFitting                                  ... on

Time for X-Grid setup             =    0.159 sec

--------------
SCF ITERATIONS
--------------
ITER       Energy         Delta-E        Max-DP      RMS-DP      [F,P]     Damp
               ***  Starting incremental Fock matrix formation  ***
                      *** Initiating the SOSCF procedure ***
                      *** Re-Reading the Fockian *** 
                      *** Removing any level shift *** 
ITER      Energy       Delta-E        Grad      Rot      Max-DP    RMS-DP
  0  -1418.64073471 -1418.6407347103  0.000004  0.000004  0.000010  0.000001
               *** Restarting incremental Fock matrix formation ***
                  ***Gradient check signals convergence***
              ***Rediagonalizing the Fockian in SOSCF/NRSCF***

               *****************************************************
               *                     SUCCESS                       *
               *           SCF CONVERGED AFTER   1 CYCLES          *
               *****************************************************

Old exchange energy                            =    -17.628491752 Eh
New exchange energy                            =    -17.628499606 Eh
Exchange energy change after final integration =     -0.000007854 Eh
Total energy after final integration           =  -1418.640742565 Eh
Final COS-X integration done in                =     0.797 sec

----------------
TOTAL SCF ENERGY
----------------

Total Energy       :        -1418.64074257 Eh          -38603.17715 eV

Components:
Nuclear Repulsion  :          260.87163617 Eh            7098.67811 eV
Electronic Energy  :        -1679.51237874 Eh          -45701.85526 eV
One Electron Energy:        -2477.19672761 Eh          -67407.94991 eV
Two Electron Energy:          797.68434887 Eh           21706.09465 eV
Max COSX asymmetry :            0.00000172 Eh               0.00005 eV

Virial components:
Potential Energy   :        -2834.33251337 Eh          -77126.10870 eV
Kinetic Energy     :         1415.69177080 Eh           38522.93155 eV
Virial Ratio       :            2.00208306


DFT components:
N(Alpha)           :       28.999994903718 electrons
N(Beta)            :       28.999994903718 electrons
N(Total)           :       57.999989807436 electrons
E(X)               :      -69.962799341783 Eh       
E(C)               :       -2.761876399794 Eh       
E(XC)              :      -72.724675741577 Eh       
DFET-embed. en.    :        0.000000000000 Eh       

---------------
SCF CONVERGENCE
---------------

  Last Energy change         ...   -5.2160e-10  Tolerance :   1.0000e-08
  Last MAX-Density change    ...    2.2204e-15  Tolerance :   1.0000e-07
  Last RMS-Density change    ...    9.6499e-17  Tolerance :   5.0000e-09
  Last Orbital Gradient      ...    2.4874e-06  Tolerance :   1.0000e-05
  Last Orbital Rotation      ...    4.8888e-06  Tolerance :   1.0000e-05

             **** THE GBW FILE WAS UPDATED (CDCl3-raman.gbw) ****
             **** DENSITY CDCl3-raman.scfp WAS UPDATED ****
             **** ENERGY FILE WAS UPDATED (CDCl3-raman.en.tmp) ****
             **** THE GBW FILE WAS UPDATED (CDCl3-raman.gbw) ****
             **** DENSITY CDCl3-raman.scfp WAS UPDATED ****
----------------
ORBITAL ENERGIES
----------------

  NO   OCC          E(Eh)            E(eV) 
   0   2.0000    -101.518268     -2762.4525 
   1   2.0000    -101.518254     -2762.4521 
   2   2.0000    -101.518207     -2762.4509 
   3   2.0000     -10.352482      -281.7054 
   4   2.0000      -9.473421      -257.7849 
   5   2.0000      -9.473408      -257.7845 
   6   2.0000      -9.473366      -257.7834 
   7   2.0000      -7.242994      -197.0919 
   8   2.0000      -7.242979      -197.0915 
   9   2.0000      -7.242958      -197.0909 
  10   2.0000      -7.232173      -196.7974 
  11   2.0000      -7.232154      -196.7969 
  12   2.0000      -7.232146      -196.7967 
  13   2.0000      -7.231997      -196.7927 
  14   2.0000      -7.231978      -196.7921 
  15   2.0000      -7.231973      -196.7920 
  16   2.0000      -0.934348       -25.4249 
  17   2.0000      -0.834019       -22.6948 
  18   2.0000      -0.833986       -22.6939 
  19   2.0000      -0.641745       -17.4628 
  20   2.0000      -0.502963       -13.6863 
  21   2.0000      -0.470249       -12.7961 
  22   2.0000      -0.470217       -12.7953 
  23   2.0000      -0.346908        -9.4398 
  24   2.0000      -0.346867        -9.4387 
  25   2.0000      -0.320090        -8.7101 
  26   2.0000      -0.320053        -8.7091 
  27   2.0000      -0.316172        -8.6035 
  28   2.0000      -0.302572        -8.2334 
  29   0.0000      -0.016990        -0.4623 
  30   0.0000       0.026321         0.7162 
  31   0.0000       0.026353         0.7171 
  32   0.0000       0.065789         1.7902 
  33   0.0000       0.393118        10.6973 
  34   0.0000       0.398934        10.8555 
  35   0.0000       0.398964        10.8564 
  36   0.0000       0.412704        11.2302 
  37   0.0000       0.538339        14.6490 
  38   0.0000       0.538444        14.6518 
  39   0.0000       0.586894        15.9702 
  40   0.0000       0.665345        18.1050 
  41   0.0000       0.665428        18.1072 
  42   0.0000       0.727653        19.8005 
  43   0.0000       0.736590        20.0436 
  44   0.0000       0.736596        20.0438 
  45   0.0000       0.743192        20.2233 
  46   0.0000       0.758254        20.6331 
  47   0.0000       0.758260        20.6333 
  48   0.0000       0.765903        20.8413 
  49   0.0000       0.777893        21.1675 
  50   0.0000       0.777900        21.1677 
  51   0.0000       0.780189        21.2300 
  52   0.0000       0.792925        21.5766 
  53   0.0000       0.811671        22.0867 
  54   0.0000       0.811679        22.0869 
  55   0.0000       0.828726        22.5508 
  56   0.0000       0.848772        23.0963 
  57   0.0000       0.848801        23.0971 
  58   0.0000       1.022838        27.8328 
  59   0.0000       1.033187        28.1145 
  60   0.0000       1.033283        28.1171 
  61   0.0000       1.202833        32.7308 
  62   0.0000       1.254151        34.1272 
  63   0.0000       1.254343        34.1324 
  64   0.0000       1.358267        36.9603 
  65   0.0000       1.540776        41.9267 
  66   0.0000       1.541070        41.9346 
  67   0.0000       1.891707        51.4760 
  68   0.0000       2.053408        55.8761 
  69   0.0000       2.053573        55.8806 
  70   0.0000       2.134456        58.0815 
  71   0.0000       2.134515        58.0831 
  72   0.0000       2.772744        75.4502 

                    ********************************
                    * MULLIKEN POPULATION ANALYSIS *
                    ********************************

-----------------------
MULLIKEN ATOMIC CHARGES
-----------------------
   0 C :    0.083049
   1 Cl:   -0.069037
   2 Cl:   -0.068987
   3 Cl:   -0.069009
   4 H :    0.123983
Sum of atomic charges:   -0.0000000

--------------------------------
MULLIKEN REDUCED ORBITAL CHARGES
--------------------------------
  0 C s       :     3.124595  s :     3.124595
      pz      :     0.883544  p :     2.724345
      px      :     0.839763
      py      :     1.001038
      dz2     :     0.013571  d :     0.068010
      dxz     :     0.015334
      dyz     :     0.013019
      dx2y2   :     0.011272
      dxy     :     0.014814
  1 Cls       :     5.955695  s :     5.955695
      pz      :     3.931695  p :    11.080350
      px      :     3.408095
      py      :     3.740561
      dz2     :     0.005383  d :     0.032992
      dxz     :     0.004235
      dyz     :     0.001979
      dx2y2   :     0.007412
      dxy     :     0.013983
  2 Cls       :     5.955673  s :     5.955673
      pz      :     3.707488  p :    11.080332
      px      :     3.590971
      py      :     3.781872
      dz2     :     0.003742  d :     0.032982
      dxz     :     0.010387
      dyz     :     0.005843
      dx2y2   :     0.004313
      dxy     :     0.008696
  3 Cls       :     5.955683  s :     5.955683
      pz      :     3.352042  p :    11.080324
      px      :     3.834105
      py      :     3.894176
      dz2     :     0.012863  d :     0.033001
      dxz     :     0.009741
      dyz     :     0.007399
      dx2y2   :     0.001052
      dxy     :     0.001945
  4 H s       :     0.855028  s :     0.855028
      pz      :     0.005727  p :     0.020989
      px      :     0.003471
      py      :     0.011791


                     *******************************
                     * LOEWDIN POPULATION ANALYSIS *
                     *******************************

----------------------
LOEWDIN ATOMIC CHARGES
----------------------
   0 C :   -0.246916
   1 Cl:    0.075787
   2 Cl:    0.075786
   3 Cl:    0.075832
   4 H :    0.019510

-------------------------------
LOEWDIN REDUCED ORBITAL CHARGES
-------------------------------
  0 C s       :     3.050906  s :     3.050906
      pz      :     1.002925  p :     3.055608
      px      :     0.975104
      py      :     1.077579
      dz2     :     0.027274  d :     0.140401
      dxz     :     0.030998
      dyz     :     0.028126
      dx2y2   :     0.023087
      dxy     :     0.030915
  1 Cls       :     5.798896  s :     5.798896
      pz      :     3.919549  p :    11.086799
      px      :     3.431141
      py      :     3.736109
      dz2     :     0.006602  d :     0.038519
      dxz     :     0.004532
      dyz     :     0.002087
      dx2y2   :     0.008405
      dxy     :     0.016892
  2 Cls       :     5.798927  s :     5.798927
      pz      :     3.711854  p :    11.086781
      px      :     3.599723
      py      :     3.775204
      dz2     :     0.003871  d :     0.038506
      dxz     :     0.012734
      dyz     :     0.007009
      dx2y2   :     0.004788
      dxy     :     0.010104
  3 Cls       :     5.798858  s :     5.798858
      pz      :     3.373265  p :    11.086779
      px      :     3.828174
      py      :     3.885340
      dz2     :     0.015243  d :     0.038531
      dxz     :     0.011433
      dyz     :     0.008531
      dx2y2   :     0.001125
      dxy     :     0.002200
  4 H s       :     0.903771  s :     0.903771
      pz      :     0.021276  p :     0.076718
      px      :     0.013649
      py      :     0.041794


                      *****************************
                      * MAYER POPULATION ANALYSIS *
                      *****************************

  NA   - Mulliken gross atomic population
  ZA   - Total nuclear charge
  QA   - Mulliken gross atomic charge
  VA   - Mayer's total valence
  BVA  - Mayer's bonded valence
  FA   - Mayer's free valence

  ATOM       NA         ZA         QA         VA         BVA        FA
  0 C      5.9170     6.0000     0.0830     4.0509     4.0509     0.0000
  1 Cl    17.0690    17.0000    -0.0690     1.1388     1.1388    -0.0000
  2 Cl    17.0690    17.0000    -0.0690     1.1389     1.1389    -0.0000
  3 Cl    17.0690    17.0000    -0.0690     1.1388     1.1388     0.0000
  4 H      0.8760     1.0000     0.1240     0.9685     0.9685     0.0000

  Mayer bond orders larger than 0.100000
B(  0-C ,  1-Cl) :   1.0355 B(  0-C ,  2-Cl) :   1.0355 B(  0-C ,  3-Cl) :   1.0355 
B(  0-C ,  4-H ) :   0.9444 

-------
TIMINGS
-------

Total SCF time: 0 days 0 hours 0 min 2 sec 

Total time                  ....       2.284 sec
Sum of individual times     ....       2.215 sec  ( 97.0%)

Fock matrix formation       ....       1.885 sec  ( 82.5%)
  Split-RI-J                ....       0.156 sec  (  8.3% of F)
  Chain of spheres X        ....       1.485 sec  ( 78.8% of F)
  XC integration            ....       0.259 sec  ( 13.8% of F)
    Basis function eval.    ....       0.098 sec  ( 37.9% of XC)
    Density eval.           ....       0.042 sec  ( 16.0% of XC)
    XC-Functional eval.     ....       0.050 sec  ( 19.3% of XC)
    XC-Potential eval.      ....       0.044 sec  ( 16.8% of XC)
Diagonalization             ....       0.001 sec  (  0.0%)
Density matrix formation    ....       0.000 sec  (  0.0%)
Population analysis         ....       0.005 sec  (  0.2%)
Initial guess               ....       0.001 sec  (  0.0%)
Orbital Transformation      ....       0.000 sec  (  0.0%)
Orbital Orthonormalization  ....       0.000 sec  (  0.0%)
DIIS solution               ....       0.000 sec  (  0.0%)
SOSCF solution              ....       0.000 sec  (  0.0%)
Grid generation             ....       0.322 sec  ( 14.1%)

Maximum memory used throughout the entire SCF-calculation: 50.5 MB

-------------------------   --------------------
FINAL SINGLE POINT ENERGY     -1418.640742565064
-------------------------   --------------------

                                *** OPTIMIZATION RUN DONE ***

                            ***************************************
                            *     ORCA property calculations      *
                            ***************************************

                                    ---------------------
                                    Active property flags
                                    ---------------------
   (+) Dipole Moment
   (+) Polarizability


------------------------------------------------------------------------------
                       ORCA ELECTRIC PROPERTIES CALCULATION
------------------------------------------------------------------------------

Dipole Moment Calculation                       ... on
Quadrupole Moment Calculation                   ... off
Polarizability Calculation                      ... Analytic (CP-SCF)
GBWName                                         ... CDCl3-raman.gbw
Electron density                                ... CDCl3-raman.scfp
The origin for moment calculation is the CENTER OF MASS  = (-10.083716,  6.095806  0.333903)

-------------
DIPOLE MOMENT
-------------
                                X             Y             Z
Electronic contribution:      0.30494       1.09020       0.62471
Nuclear contribution   :     -0.41007      -1.46629      -0.84024
                        -----------------------------------------
Total Dipole Moment    :     -0.10514      -0.37609      -0.21553
                        -----------------------------------------
Magnitude (a.u.)       :      0.44604
Magnitude (Debye)      :      1.13374



--------------------
Rotational spectrum 
--------------------
 
Rotational constants in cm-1:     0.105765     0.105680     0.054782 
Rotational constants in MHz :  3170.742267  3168.213837  1642.330451 

 Dipole components along the rotational axes: 
x,y,z [a.u.] :     0.000090    -0.000023    -0.446039 
x,y,z [Debye]:     0.000229    -0.000058    -1.133741 

 
Transforming and storing MO dipole integrals   ... done

                ... starting polarizability calculation

The origin for moment calculation is the CENTER OF MASS  = (-10.083716,  6.095806  0.333903)
Opening the Dipole integral file               ... (CDCl3-raman.dmo.tmp) done
Reading Dipole-MO integrals                    ... done
Solving CP-SCF equations                       ... 
------------------------------------------------------------------------------
                           ORCA CP-SCF CALCULATION
------------------------------------------------------------------------------

Input orbitals are from        ... CDCl3-raman.gbw
Input Perturbation             ... CDCl3-raman.cpv.tmp
Wavefunction output            ... CDCl3-raman.cpu.tmp
Perturbation mode              ... Real perturbation (singlet)
Solver                         ... POPLE
Max. number of iterations      ... 64
Convergence tolerance          ... 1.000e-04
Integral handling              ... Direct
DFT GridXC                     ... 1
COSX GridX                     ... 1
COSX IntAccX                   ... 3.067
COSX Algorithm                 ... Auto
Number of perturbations        ... 3
Number of operators            ... 1
Orbital ranges used for CP-SCF:
 Operator 0:  Orbitals   0... 28  to  29... 72
Variables per perturbation     ... 1276
DFT calculation                         ... on
XC functional terms                     ... on
Exchange functional (SCF)               ... B88
Exchange functional (CP-SCF)            ... B88
   X-Alpha parameter    XAlpha (SCF)    ...  0.666667
   X-Alpha parameter    XAlpha (CP-SCF) ...  0.666667
   Becke's b parameter  XBeta (SCF)     ...  0.004200
   Becke's b parameter  XBeta (CP-SCF)  ...  0.004200
Correlation functional (SCF)            ... LYP
Correlation functional (CP-SCF)         ... LYP
 LDA part of GGA corr.  LDAOpt (SCF)    ... VWN-5
 LDA part of GGA corr.  LDAOpt (CP-SCF) ... VWN-5
Hybrid DFT                              ... on
   Exchange mixing (SCF)                ...  0.200
   Exchange mixing (CP-SCF)             ...  0.200
   GGA exch. scaling(SCF)               ...  0.720
   GGA exch. scaling (CP-SCF)           ...  0.720
   GGA corr. scaling (SCF)              ...  0.810
   GGA corr. scaling (CP-SCF)           ...  0.810

CP-SCF GRID
-----------

General Integration Accuracy     IntAcc      ... 3.467
Radial Grid Type                 RadialGrid  ... OptM3 with GC (2021)
Angular Grid (max. ang.)         AngularGrid ... 1 (Lebedev-50)
Angular grid pruning method      GridPruning ... 4 (adaptive)
Weight generation scheme         WeightScheme... Becke
Basis function cutoff            BFCut       ... 1.0000e-11
Integration weight cutoff        WCut        ... 1.0000e-14
Angular grids for H and He will be reduced by one unit
Partially contracted basis set               ... off
Rotationally invariant grid construction     ... off

Total number of grid points                  ...     4592
Total number of batches                      ...       73
Average number of points per batch           ...       62
Average number of grid points per atom       ...      918

CP-SCF GRIDX
------------

General Integration Accuracy     IntAcc      ... 3.067
Radial Grid Type                 RadialGrid  ... OptM3 with GC (2021)
Angular Grid (max. ang.)         AngularGrid ... 1 (Lebedev-50)
Angular grid pruning method      GridPruning ... 4 (adaptive)
Weight generation scheme         WeightScheme... Becke
Basis function cutoff            BFCut       ... 1.0000e-11
Integration weight cutoff        WCut        ... 1.0000e-14
Angular grids for H and He will be reduced by one unit
Partially contracted basis set               ... on
Rotationally invariant grid construction     ... off

Total number of grid points                  ...     2220
Total number of batches                      ...       38
Average number of points per batch           ...       58
Average number of grid points per atom       ...      444

Recalculating density on grid  ... done
Calculating the xc-kernel      ... done
Memory available               ... 1015.1 MB
Memory needed per perturbation ...   1.5 MB
Perturbations treated per batch... 3
Number of batches              ... 1
     CP-SCF ITERATION   0:   4.3119e+00 (   0.3 sec   0/  3 done)
     CP-SCF ITERATION   1:   4.1900e-01 (   0.3 sec   0/  3 done)
     CP-SCF ITERATION   2:   9.6419e-02 (   0.3 sec   0/  3 done)
     CP-SCF ITERATION   3:   1.8249e-02 (   0.3 sec   0/  3 done)
     CP-SCF ITERATION   4:   3.9618e-03 (   0.3 sec   0/  3 done)
     CP-SCF ITERATION   5:   7.9435e-04 (   0.3 sec   0/  3 done)
     CP-SCF ITERATION   6:   1.1090e-04 (   0.3 sec   1/  3 done)
     CP-SCF ITERATION   7:   2.3147e-05 (   0.3 sec   3/  3 done)
                    *** THE CP-SCF HAS CONVERGED ***
done
Reading CP-SCF coefficients                    ... done
Doing the polarizability tensor                ... done
Cleaning up                                    ... done

-------------------------
THE POLARIZABILITY TENSOR
-------------------------

The raw cartesian tensor (atomic units):
   42.60470     -3.59892     -2.07448  
   -3.59892     30.71944     -7.38109  
   -2.07448     -7.38109     39.38543  
diagonalized tensor: 
   25.48553     43.60021     43.62382  

   -0.23581     -0.66801      0.70580  
   -0.84328      0.50162      0.19303  
   -0.48299     -0.54967     -0.68161  

Isotropic polarizability :  37.56985


----------------------------------------------------------------------------
                           ORCA NUMERICAL FREQUENCIES
----------------------------------------------------------------------------

Number of atoms                ... 5
Central differences            ... used
Number of displacements        ... 30
Numerical increment            ... 5.000e-03 bohr
IR-spectrum generation         ... on
Raman-spectrum generation      ... on
Polarizability calculation     ... 1
Surface Crossing Hessian       ... off

The output will be reduced. Please look at the following files:
SCF program output             ... >CDCl3-raman.lastscf
Integral program output        ... >CDCl3-raman.lastint
Gradient program output        ... >CDCl3-raman.lastgrad
Dipole moment program output   ... >CDCl3-raman.lastmom
AutoCI program output          ... >CDCl3-raman.lastautoci

	<< Calculating on displaced geometry   1 (of  30) >>
	<< Calculating on displaced geometry   2 (of  30) >>
	<< Calculating on displaced geometry   3 (of  30) >>
	<< Calculating on displaced geometry   4 (of  30) >>
	<< Calculating on displaced geometry   5 (of  30) >>
	<< Calculating on displaced geometry   6 (of  30) >>
	<< Calculating on displaced geometry   7 (of  30) >>
	<< Calculating on displaced geometry   8 (of  30) >>
	<< Calculating on displaced geometry   9 (of  30) >>
	<< Calculating on displaced geometry  10 (of  30) >>
	<< Calculating on displaced geometry  11 (of  30) >>
	<< Calculating on displaced geometry  12 (of  30) >>
	<< Calculating on displaced geometry  13 (of  30) >>
	<< Calculating on displaced geometry  14 (of  30) >>
	<< Calculating on displaced geometry  15 (of  30) >>
	<< Calculating on displaced geometry  16 (of  30) >>
	<< Calculating on displaced geometry  17 (of  30) >>
	<< Calculating on displaced geometry  18 (of  30) >>
	<< Calculating on displaced geometry  19 (of  30) >>
	<< Calculating on displaced geometry  20 (of  30) >>
	<< Calculating on displaced geometry  21 (of  30) >>
	<< Calculating on displaced geometry  22 (of  30) >>
	<< Calculating on displaced geometry  23 (of  30) >>
	<< Calculating on displaced geometry  24 (of  30) >>
	<< Calculating on displaced geometry  25 (of  30) >>
	<< Calculating on displaced geometry  26 (of  30) >>
	<< Calculating on displaced geometry  27 (of  30) >>
	<< Calculating on displaced geometry  28 (of  30) >>
	<< Calculating on displaced geometry  29 (of  30) >>
	<< Calculating on displaced geometry  30 (of  30) >>

-----------------------
VIBRATIONAL FREQUENCIES
-----------------------

Scaling factor for frequencies =  1.000000000 (already applied!)

   0:         0.00 cm**-1
   1:         0.00 cm**-1
   2:         0.00 cm**-1
   3:         0.00 cm**-1
   4:         0.00 cm**-1
   5:         0.00 cm**-1
   6:       254.60 cm**-1
   7:       255.07 cm**-1
   8:       362.22 cm**-1
   9:       665.69 cm**-1
  10:       740.88 cm**-1
  11:       741.45 cm**-1
  12:      1220.22 cm**-1
  13:      1220.68 cm**-1
  14:      3168.77 cm**-1


------------
NORMAL MODES
------------

These modes are the cartesian displacements weighted by the diagonal matrix
M(i,i)=1/sqrt(m[i]) where m[i] is the mass of the displaced atom
Thus, these vectors are normalized but *not* orthogonal

                  0          1          2          3          4          5    
      0       0.000000   0.000000   0.000000   0.000000   0.000000   0.000000
      1       0.000000   0.000000   0.000000   0.000000   0.000000   0.000000
      2       0.000000   0.000000   0.000000   0.000000   0.000000   0.000000
      3       0.000000   0.000000   0.000000   0.000000   0.000000   0.000000
      4       0.000000   0.000000   0.000000   0.000000   0.000000   0.000000
      5       0.000000   0.000000   0.000000   0.000000   0.000000   0.000000
      6       0.000000   0.000000   0.000000   0.000000   0.000000   0.000000
      7       0.000000   0.000000   0.000000   0.000000   0.000000   0.000000
      8       0.000000   0.000000   0.000000   0.000000   0.000000   0.000000
      9       0.000000   0.000000   0.000000   0.000000   0.000000   0.000000
     10       0.000000   0.000000   0.000000   0.000000   0.000000   0.000000
     11       0.000000   0.000000   0.000000   0.000000   0.000000   0.000000
     12       0.000000   0.000000   0.000000   0.000000   0.000000   0.000000
     13       0.000000   0.000000   0.000000   0.000000   0.000000   0.000000
     14       0.000000   0.000000   0.000000   0.000000   0.000000   0.000000
                  6          7          8          9         10         11    
      0      -0.268162  -0.089711   0.113623  -0.156991  -0.477073   0.586731
      1       0.101345  -0.119135   0.408768  -0.566647   0.400695   0.122733
      2      -0.049395   0.249063   0.235607  -0.326640  -0.465325  -0.495662
      3      -0.436948   0.043480  -0.403525  -0.086122   0.103419  -0.091555
      4       0.076601   0.243134   0.071743   0.102632  -0.087269   0.056967
      5       0.020008  -0.452939  -0.051654   0.034031  -0.003786   0.031946
      6       0.241341  -0.401662   0.246815   0.089972  -0.001531  -0.120599
      7      -0.261132   0.021071   0.046854   0.095922  -0.027862  -0.091186
      8       0.361635   0.215380  -0.325430  -0.040719   0.026315   0.082430
      9       0.298723   0.392685   0.114825   0.054045   0.070017   0.000725
     10       0.145546  -0.218397  -0.269170   0.010188  -0.029281  -0.010036
     11      -0.362681   0.141743   0.290305   0.126994   0.145178   0.064245
     12      -0.431416  -0.144577   0.119295  -0.165594  -0.361529   0.445011
     13       0.163574  -0.191595   0.425168  -0.589796   0.304620   0.094083
     14      -0.078356   0.402247   0.244765  -0.339228  -0.353819  -0.376278
                 12         13         14    
      0      -0.010548   0.070383  -0.020418
      1       0.038268  -0.009236  -0.073079
      2      -0.061677  -0.017809  -0.041858
      3      -0.001485   0.002177   0.000075
      4       0.002776  -0.012438   0.000290
      5       0.004903  -0.004541   0.000165
      6       0.006358   0.003537   0.000086
      7       0.006638   0.010442   0.000295
      8       0.002554   0.000372   0.000161
      9      -0.005381  -0.002311   0.000082
     10      -0.007583   0.001474   0.000287
     11      -0.010398   0.003272   0.000172
     12       0.143554  -0.958341   0.234766
     13      -0.520383   0.128406   0.840107
     14       0.838388   0.243759   0.481244


-----------
IR SPECTRUM
-----------

 Mode   freq       eps      Int      T**2         TX        TY        TZ
       cm**-1   L/(mol*cm) km/mol    a.u.
----------------------------------------------------------------------------
  6:    254.60   0.000011    0.06  0.000014  (-0.003421  0.001221 -0.000924)
  7:    255.07   0.000014    0.07  0.000017  (-0.001085 -0.001856  0.003473)
  8:    362.22   0.000091    0.46  0.000079  ( 0.001980  0.007389  0.004484)
  9:    665.69   0.001432    7.24  0.000671  (-0.005671 -0.021716 -0.012943)
 10:    740.88   0.033030  166.92  0.013912  (-0.072211  0.060639 -0.070858)
 11:    741.45   0.033031  166.93  0.013902  ( 0.088732  0.018642 -0.075375)
 12:   1220.22   0.004431   22.39  0.001133  (-0.005115  0.017781 -0.028121)
 13:   1220.68   0.005060   25.57  0.001294  ( 0.034347 -0.005684 -0.009035)
 14:   3168.77   0.000044    0.22  0.000004  (-0.000834 -0.001648 -0.000965)

* The epsilon (eps) is given for a Dirac delta lineshape.
** The dipole moment derivative (T) already includes vibrational overlap.

--------------
RAMAN SPECTRUM  
--------------

 Mode    freq (cm**-1)   Activity   Depolarization
-------------------------------------------------------------------
   6:       254.60      5.136771      0.749997
   7:       255.07      5.125524      0.749989
   8:       362.22      8.686923      0.244911
   9:       665.69      9.802845      0.000124
  10:       740.88      3.081999      0.750000
  11:       741.45      3.069800      0.749968
  12:      1220.22      6.043115      0.749999
  13:      1220.68      6.046890      0.750000
  14:      3168.77     77.284429      0.239586

The first frequency considered to be a vibration is 6
The total number of vibrations considered is 9


--------------------------
THERMOCHEMISTRY AT 298.15K
--------------------------

Temperature         ... 298.15 K
Pressure            ... 1.00 atm
Total Mass          ... 119.38 AMU

Throughout the following assumptions are being made:
  (1) The electronic state is orbitally nondegenerate
  (2) There are no thermally accessible electronically excited states
  (3) Hindered rotations indicated by low frequency modes are not
      treated as such but are treated as vibrations and this may
      cause some error
  (4) All equations used are the standard statistical mechanics
      equations for an ideal gas
  (5) All vibrations are strictly harmonic

freq.     254.60  E(vib)   ...       0.30 
freq.     255.07  E(vib)   ...       0.30 
freq.     362.22  E(vib)   ...       0.22 
freq.     665.69  E(vib)   ...       0.08 
freq.     740.88  E(vib)   ...       0.06 
freq.     741.45  E(vib)   ...       0.06 
freq.    1220.22  E(vib)   ...       0.01 
freq.    1220.68  E(vib)   ...       0.01 
freq.    3168.77  E(vib)   ...       0.00 

------------
INNER ENERGY
------------

The inner energy is: U= E(el) + E(ZPE) + E(vib) + E(rot) + E(trans)
    E(el)   - is the total energy from the electronic structure calculation
              = E(kin-el) + E(nuc-el) + E(el-el) + E(nuc-nuc)
    E(ZPE)  - the the zero temperature vibrational energy from the frequency calculation
    E(vib)  - the the finite temperature correction to E(ZPE) due to population
              of excited vibrational states
    E(rot)  - is the rotational thermal energy
    E(trans)- is the translational thermal energy

Summary of contributions to the inner energy U:
Electronic energy                ...  -1418.64074257 Eh
Zero point energy                ...      0.01965965 Eh      12.34 kcal/mol
Thermal vibrational correction   ...      0.00165997 Eh       1.04 kcal/mol
Thermal rotational correction    ...      0.00141627 Eh       0.89 kcal/mol
Thermal translational correction ...      0.00141627 Eh       0.89 kcal/mol
-----------------------------------------------------------------------
Total thermal energy                  -1418.61659040 Eh


Summary of corrections to the electronic energy:
(perhaps to be used in another calculation)
Total thermal correction                  0.00449251 Eh       2.82 kcal/mol
Non-thermal (ZPE) correction              0.01965965 Eh      12.34 kcal/mol
-----------------------------------------------------------------------
Total correction                          0.02415217 Eh      15.16 kcal/mol


--------
ENTHALPY
--------

The enthalpy is H = U + kB*T
                kB is Boltzmann's constant
Total free energy                 ...  -1418.61659040 Eh 
Thermal Enthalpy correction       ...      0.00094421 Eh       0.59 kcal/mol
-----------------------------------------------------------------------
Total Enthalpy                    ...  -1418.61564619 Eh


Note: Only C1 symmetry has been detected, increase convergence thresholds 
      if your molecule has a higher symmetry. Symmetry factor of 1.0 is   
      used for the rotational entropy correction. 
 

Note: Rotational entropy computed according to Herzberg 
Infrared and Raman Spectra, Chapter V,1, Van Nostrand Reinhold, 1945 
Point Group:  C1, Symmetry Number:   1  
Rotational constants in cm-1:     0.105765     0.105680     0.054782 

Vibrational entropy computed according to the QRRHO of S. Grimme
Chem.Eur.J. 2012 18 9955


-------
ENTROPY
-------

The entropy contributions are T*S = T*(S(el)+S(vib)+S(rot)+S(trans))
     S(el)   - electronic entropy
     S(vib)  - vibrational entropy
     S(rot)  - rotational entropy
     S(trans)- translational entropy
The entropies will be listed as multiplied by the temperature to get
units of energy

Electronic entropy                ...      0.00000000 Eh      0.00 kcal/mol
Vibrational entropy               ...      0.00259792 Eh      1.63 kcal/mol
Rotational entropy                ...      0.01300346 Eh      8.16 kcal/mol
Translational entropy             ...      0.01912210 Eh     12.00 kcal/mol
-----------------------------------------------------------------------
Final entropy term                ...      0.03472348 Eh     21.79 kcal/mol

In case the symmetry of your molecule has not been determined correctly
or in case you have a reason to use a different symmetry number we print 
out the resulting rotational entropy values for sn=1,12 :
 --------------------------------------------------------
|  sn= 1 | S(rot)=       0.01300346 Eh      8.16 kcal/mol|
|  sn= 2 | S(rot)=       0.01234900 Eh      7.75 kcal/mol|
|  sn= 3 | S(rot)=       0.01196617 Eh      7.51 kcal/mol|
|  sn= 4 | S(rot)=       0.01169455 Eh      7.34 kcal/mol|
|  sn= 5 | S(rot)=       0.01148386 Eh      7.21 kcal/mol|
|  sn= 6 | S(rot)=       0.01131172 Eh      7.10 kcal/mol|
|  sn= 7 | S(rot)=       0.01116617 Eh      7.01 kcal/mol|
|  sn= 8 | S(rot)=       0.01104009 Eh      6.93 kcal/mol|
|  sn= 9 | S(rot)=       0.01092888 Eh      6.86 kcal/mol|
|  sn=10 | S(rot)=       0.01082940 Eh      6.80 kcal/mol|
|  sn=11 | S(rot)=       0.01073941 Eh      6.74 kcal/mol|
|  sn=12 | S(rot)=       0.01065726 Eh      6.69 kcal/mol|
 --------------------------------------------------------


-------------------
GIBBS FREE ENERGY
-------------------

The Gibbs free energy is G = H - T*S

Total enthalpy                    ...  -1418.61564619 Eh 
Total entropy correction          ...     -0.03472348 Eh    -21.79 kcal/mol
-----------------------------------------------------------------------
Final Gibbs free energy         ...  -1418.65036967 Eh

For completeness - the Gibbs free energy minus the electronic energy
G-E(el)                           ...     -0.00962710 Eh     -6.04 kcal/mol



Timings for individual modules:

Sum of individual times         ...      314.544 sec (=   5.242 min)
GTO integral calculation        ...        0.312 sec (=   0.005 min)   0.1 %
SCF iterations                  ...       10.178 sec (=   0.170 min)   3.2 %
Solution of CP-SCF eqns.        ...        2.275 sec (=   0.038 min)   0.7 %
SCF Gradient evaluation         ...        3.384 sec (=   0.056 min)   1.1 %
Geometry relaxation             ...        0.025 sec (=   0.000 min)   0.0 %
Numerical frequency calculation ...      298.370 sec (=   4.973 min)  94.9 %
                             ****ORCA TERMINATED NORMALLY****
TOTAL RUN TIME: 0 days 0 hours 5 minutes 10 seconds 599 msec
